 Gaussian 16, Revision A.03,
 Gaussian 16:  ES64L-G16RevA.03 25-Dec-2016

 ------------------------
 #p opt b3lyp/6-311g(d,p)
 ------------------------

 ------------------
 O3G_1m_0sc_opt.gjf
 ------------------
 Symbolic Z-matrix:
 Charge =  0 Multiplicity = 1

 SCF Done:  E(RB3LYP) =  -2257.24551816     A.U. after   14 cycles
 SCF Done:  E(RB3LYP) =  -2257.27207157     A.U. after   11 cycles
 SCF Done:  E(RB3LYP) =  -2257.28095952     A.U. after   11 cycles
 SCF Done:  E(RB3LYP) =  -2257.28130839     A.U. after   10 cycles
 SCF Done:  E(RB3LYP) =  -2257.28135111     A.U. after    9 cycles
 SCF Done:  E(RB3LYP) =  -2257.28135378     A.U. after    9 cycles
 SCF Done:  E(RB3LYP) =  -2257.28135417     A.U. after    7 cycles
 Optimization completed.
    -- Stationary point found.

                         Standard orientation:
 ---------------------------------------------------------------------
 Center     Atomic      Atomic             Coordinates (Angstroms)
 Number     Number       Type             X           Y           Z
 ---------------------------------------------------------------------
      1          6           0        0.151628    0.706300   -0.000071
      2          6           0        1.397797    1.313120   -0.000096
      3          6           0        1.356695    2.736282   -0.000078
      4          6           0        0.078028    3.212581   -0.000043
      5         16           0       -1.095958    1.946151   -0.000008
      6          8           0        2.523332    0.542068   -0.000147
      7          1           0        2.229712    3.372384   -0.000098
      8          6           0       -0.151633   -0.705499   -0.000087
      9          6           0       -1.397721   -1.312438   -0.000053
     10          6           0       -1.356472   -2.735645   -0.000097
     11          6           0       -0.077768   -3.211778   -0.000173
     12         16           0        1.096100   -1.945243   -0.000139
     13          8           0       -2.523369   -0.541574    0.000008
     14          1           0       -2.229508   -3.371717   -0.000088
     15          6           0        3.787816    1.197691   -0.000107
     16          1           0        3.898949    1.826172    0.890438
     17          1           0        3.898972    1.826237   -0.890603
     18          6           0       -3.787741   -1.197339   -0.000004
     19          1           0       -3.898830   -1.825846   -0.890542
     20          1           0       -3.898815   -1.825906    0.890495
     21          6           0        4.850074    0.112595   -0.000135
     22          1           0        4.735137   -0.522681    0.888999
     23          1           0        4.735143   -0.522626   -0.889310
     24          6           0       -4.850155   -0.112386    0.000040
     25          1           0       -4.735310    0.522845    0.889219
     26          1           0       -4.735316    0.522910   -0.889093
     27          8           0        6.103745    0.767749   -0.000110
     28          8           0       -6.103714   -0.767738    0.000021
     29          6           0        7.205695   -0.122618   -0.000130
     30          1           0        7.188950   -0.768722    0.888708
     31          1           0        7.188952   -0.768679   -0.888999
     32          6           0       -7.205806    0.122453    0.000067
     33          1           0       -7.189171    0.768577   -0.888758
     34          1           0       -7.189158    0.768501    0.888948
     35          6           0        8.471632    0.715980   -0.000105
     36          1           0        8.487562    1.362818    0.888627
     37          1           0        8.487584    1.362833   -0.888827
     38          6           0       -8.471611   -0.716345    0.000040
     39          1           0       -8.487456   -1.363155   -0.888714
     40          1           0       -8.487444   -1.363230    0.888740
     41          8           0        9.570487   -0.174885   -0.000093
     42          8           0       -9.570607    0.174347    0.000085
     43          6           0      -10.826435   -0.480097    0.000068
     44          1           0      -10.938369   -1.117067    0.888765
     45          1           0      -10.938384   -1.116991   -0.888681
     46          6           0       10.826418    0.479361   -0.000099
     47          1           0       10.938346    1.116498    0.888479
     48          1           0       10.938574    1.116054   -0.888967
     49          6           0       11.902353   -0.591998    0.000296
     50          1           0       11.788451   -1.230373   -0.888324
     51          1           0       11.788330   -1.229855    0.889272
     52          8           0       13.155039    0.063053    0.000192
     53          6           0       14.246168   -0.834202    0.000483
     54          1           0       14.241298   -1.477136   -0.891538
     55          1           0       15.157144   -0.235104    0.000373
     56          1           0       14.241208   -1.476669    0.892840
     57          6           0      -11.902538    0.591093    0.000124
     58          1           0      -11.788669    1.229189    0.888948
     59          1           0      -11.788684    1.229265   -0.888648
     60          8           0      -13.155121   -0.064155    0.000106
     61          6           0      -14.246391    0.832927    0.000151
     62          1           0      -15.157273    0.233686    0.000133
     63          1           0      -14.241572    1.475592    0.892367
     64          1           0      -14.241585    1.475666   -0.892012
     65          1           0       -0.245218    4.241780   -0.000027
     66          1           0        0.245655   -4.240933   -0.000229
 ---------------------------------------------------------------------

 The electronic state is 1-A.
 Alpha  occ. eigenvalues --  -88.86978 -88.86978 -19.15568 -19.15568 -19.13074
 Alpha  occ. eigenvalues --  -19.13074 -19.12677 -19.12677 -19.12266 -19.12266
 Alpha  occ. eigenvalues --  -10.23194 -10.23194 -10.23138 -10.23138 -10.22486
 Alpha  occ. eigenvalues --  -10.22486 -10.22138 -10.22138 -10.22011 -10.22011
 Alpha  occ. eigenvalues --  -10.21809 -10.21809 -10.21681 -10.21680 -10.21422
 Alpha  occ. eigenvalues --  -10.21422 -10.20259 -10.20223 -10.19378 -10.19377
 Alpha  occ. eigenvalues --  -10.17481 -10.17481  -7.95561  -7.95561  -5.91871
 Alpha  occ. eigenvalues --   -5.91871  -5.91485  -5.91484  -5.91134  -5.91133
 Alpha  occ. eigenvalues --   -1.07458  -1.07391  -1.05102  -1.05100  -1.04379
 Alpha  occ. eigenvalues --   -1.04378  -1.03606  -1.03605  -0.88794  -0.87006
 Alpha  occ. eigenvalues --   -0.79742  -0.79666  -0.77488  -0.77275  -0.76107
 Alpha  occ. eigenvalues --   -0.73749  -0.73331  -0.71881  -0.70823  -0.69247
 Alpha  occ. eigenvalues --   -0.66998  -0.66725  -0.63207  -0.63047  -0.61495
 Alpha  occ. eigenvalues --   -0.61484  -0.61035  -0.61009  -0.59647  -0.57420
 Alpha  occ. eigenvalues --   -0.55806  -0.55798  -0.53593  -0.51629  -0.51621
 Alpha  occ. eigenvalues --   -0.51608  -0.51581  -0.50318  -0.50296  -0.48932
 Alpha  occ. eigenvalues --   -0.48817  -0.48247  -0.48204  -0.48147  -0.47651
 Alpha  occ. eigenvalues --   -0.47512  -0.46628  -0.45993  -0.45121  -0.45063
 Alpha  occ. eigenvalues --   -0.45045  -0.44945  -0.44242  -0.44222  -0.43052
 Alpha  occ. eigenvalues --   -0.42878  -0.42500  -0.42443  -0.40314  -0.40197
 Alpha  occ. eigenvalues --   -0.40119  -0.39274  -0.38226  -0.37701  -0.37144
 Alpha  occ. eigenvalues --   -0.36755  -0.36656  -0.36079  -0.36043  -0.35916
 Alpha  occ. eigenvalues --   -0.34932  -0.33973  -0.33611  -0.32919  -0.32880
 Alpha  occ. eigenvalues --   -0.32871  -0.32609  -0.32450  -0.32408  -0.32392
 Alpha  occ. eigenvalues --   -0.32220  -0.27387  -0.27307  -0.27300  -0.26739
 Alpha  occ. eigenvalues --   -0.26735  -0.26139  -0.26139  -0.23750  -0.23444
 Alpha  occ. eigenvalues --   -0.18328
 Alpha virt. eigenvalues --   -0.03751   0.01177   0.02302   0.02507   0.04275
 Alpha virt. eigenvalues --    0.04325   0.04739   0.04740   0.04941   0.05113
 Alpha virt. eigenvalues --    0.05441   0.05779   0.06326   0.06690   0.07021

 Mulliken charges:
               1
     1  C   -0.229906
     2  C    0.237214
     3  C   -0.091337
     4  C   -0.304715
     5  S    0.310348
     6  O   -0.382573
     7  H    0.108856
     8  C   -0.229946
     9  C    0.237220
    10  C   -0.091347
    11  C   -0.304729
    12  S    0.310369
    13  O   -0.382534
    14  H    0.108858
    15  C   -0.043399
    16  H    0.116387
    17  H    0.116386
    18  C   -0.043415
    19  H    0.116381
    20  H    0.116381
    21  C    0.014358
    22  H    0.105779
    23  H    0.105779
    24  C    0.014361
    25  H    0.105776
    26  H    0.105777
    27  O   -0.392121
    28  O   -0.392118
    29  C    0.000556
    30  H    0.098540
    31  H    0.098541
    32  C    0.000555
    33  H    0.098540
    34  H    0.098540
    35  C    0.002633
    36  H    0.096512
    37  H    0.096506
    38  C    0.002633
    39  H    0.096509
    40  H    0.096509
    41  O   -0.389995
    42  O   -0.389996
    43  C    0.000604
    44  H    0.097632
    45  H    0.097632
    46  C    0.000604
    47  H    0.097628
    48  H    0.097637
    49  C   -0.008007
    50  H    0.094227
    51  H    0.094225
    52  O   -0.370411
    53  C   -0.102024
    54  H    0.089284
    55  H    0.115616
    56  H    0.089283
    57  C   -0.008007
    58  H    0.094226
    59  H    0.094226
    60  O   -0.370411
    61  C   -0.102025
    62  H    0.115616
    63  H    0.089283
    64  H    0.089283
    65  H    0.127603
    66  H    0.127603
 Sum of Mulliken charges =  -0.00000

 Dipole moment (field-independent basis, Debye):
    X=              0.0002    Y=              0.0001    Z=              0.0004  Tot=              0.0004
 Quadrupole moment (field-independent basis, Debye-Ang):
   XX=           -165.7936   YY=           -195.2079   ZZ=           -210.4940
   XY=            -18.1441   XZ=              0.0036   YZ=             -0.0001

 Normal termination of Gaussian 16 at Mon Jan 13 12:04:46 2020.
