 Gaussian 16, Revision A.03,
 Gaussian 16:  ES64L-G16RevA.03 25-Dec-2016

 ---------------------
 #p opt b3lyp/6-311g**
 ---------------------

 ------------------
 O3G_1m_0sc_opt.pdb
 ------------------
 Symbolic Z-matrix:
 Charge =  0 Multiplicity = 1

 SCF Done:  E(RB3LYP) =  -2257.13379722     A.U. after   14 cycles
 SCF Done:  E(RB3LYP) =  -2257.20797957     A.U. after   12 cycles
 SCF Done:  E(RB3LYP) =  -2257.25124000     A.U. after   14 cycles
 SCF Done:  E(RB3LYP) =  -2257.27256330     A.U. after   13 cycles
 SCF Done:  E(RB3LYP) =  -2257.27956000     A.U. after   12 cycles
 SCF Done:  E(RB3LYP) =  -2257.28117967     A.U. after   11 cycles
 SCF Done:  E(RB3LYP) =  -2257.28133877     A.U. after   10 cycles
 SCF Done:  E(RB3LYP) =  -2257.28135171     A.U. after    9 cycles
 SCF Done:  E(RB3LYP) =  -2257.28135400     A.U. after    9 cycles
 SCF Done:  E(RB3LYP) =  -2257.28135418     A.U. after    6 cycles
 Optimization completed.
    -- Stationary point found.

                         Standard orientation:
 ---------------------------------------------------------------------
 Center     Atomic      Atomic             Coordinates (Angstroms)
 Number     Number       Type             X           Y           Z
 ---------------------------------------------------------------------
      1          6           0        0.151525    0.705643   -0.000658
      2          6           0        1.397621    1.312657   -0.000528
      3          6           0        1.356295    2.735834   -0.000514
      4          6           0        0.077518    3.211896   -0.000591
      5         16           0       -1.096252    1.945276   -0.001002
      6          8           0        2.523276    0.541749   -0.000393
      7          1           0        2.229220    3.372051   -0.000372
      8          6           0       -0.151552   -0.706192   -0.000627
      9          6           0       -1.397710   -1.313119   -0.000709
     10          6           0       -1.356503   -2.736251   -0.000768
     11          6           0       -0.077687   -3.212393   -0.000772
     12         16           0        1.096082   -1.945929   -0.000383
     13          8           0       -2.523283   -0.542167   -0.000793
     14          1           0       -2.229389   -3.372518   -0.000891
     15          6           0        3.787693    1.197490   -0.000245
     16          1           0        3.898669    1.826031    0.890279
     17          1           0        3.898892    1.826011   -0.890756
     18          6           0        4.850136    0.112546   -0.000098
     19          1           0        4.735178   -0.522714    0.889043
     20          1           0        4.735420   -0.522722   -0.889265
     21          8           0        6.103749    0.767868    0.000068
     22          6           0        7.205850   -0.122347    0.000190
     23          1           0        7.189072   -0.768456    0.889025
     24          1           0        7.189284   -0.768438   -0.888662
     25          6           0        8.471692    0.716405    0.000349
     26          1           0        8.487435    1.363249    0.889101
     27          1           0        8.487643    1.363269   -0.888385
     28          8           0        9.570678   -0.174345    0.000469
     29          6           0       10.826569    0.480030    0.000621
     30          1           0       10.938444    1.117000    0.889350
     31          1           0       10.938697    1.116931   -0.888126
     32          6           0       11.902595   -0.591231    0.000809
     33          1           0       11.788777   -1.229420   -0.887979
     34          1           0       11.788585   -1.229312    0.889650
     35          8           0       13.155233    0.063968    0.000905
     36          6           0       14.246491   -0.833184    0.001074
     37          1           0       14.241755   -1.475943   -0.891095
     38          1           0       15.157372   -0.233913    0.001123
     39          1           0       14.241579   -1.475823    0.893328
     40          6           0       -3.787727   -1.197888   -0.000684
     41          1           0       -3.898713   -1.826449    0.889805
     42          1           0       -3.898914   -1.826287   -0.891262
     43          6           0       -4.850059   -0.112866   -0.000404
     44          1           0       -4.734844    0.522399    0.888690
     45          1           0       -4.735489    0.522316   -0.889641
     46          8           0       -6.103786   -0.768058    0.000061
     47          6           0       -7.205720    0.122383   -0.000022
     48          1           0       -7.188787    0.768705    0.888652
     49          1           0       -7.189018    0.768240   -0.889037
     50          6           0       -8.471718   -0.716142    0.000369
     51          1           0       -8.487536   -1.362771    0.889275
     52          1           0       -8.487786   -1.363219   -0.888209
     53          8           0       -9.570576    0.174769    0.000302
     54          6           0      -10.826552   -0.479449    0.000742
     55          1           0      -10.938385   -1.116236    0.889605
     56          1           0      -10.938882   -1.116495   -0.887875
     57          6           0      -11.902416    0.591970    0.000870
     58          1           0      -11.788579    1.230011   -0.888023
     59          1           0      -11.788234    1.230166    0.889607
     60          8           0      -13.155146   -0.063047    0.001173
     61          6           0      -14.246267    0.834275    0.001304
     62          1           0      -14.241504    1.476905   -0.890956
     63          1           0      -15.157236    0.235139    0.001511
     64          1           0      -14.241184    1.477036    0.893469
     65          1           0       -0.246053    4.241031   -0.000544
     66          1           0        0.245626   -4.241611   -0.000856
 ---------------------------------------------------------------------

 The electronic state is 1-A.
 Alpha  occ. eigenvalues --  -88.86979 -88.86978 -19.15568 -19.15568 -19.13074
 Alpha  occ. eigenvalues --  -19.13074 -19.12677 -19.12677 -19.12266 -19.12266
 Alpha  occ. eigenvalues --  -10.23194 -10.23194 -10.23138 -10.23138 -10.22487
 Alpha  occ. eigenvalues --  -10.22486 -10.22138 -10.22138 -10.22012 -10.22012
 Alpha  occ. eigenvalues --  -10.21809 -10.21809 -10.21681 -10.21681 -10.21423
 Alpha  occ. eigenvalues --  -10.21423 -10.20259 -10.20223 -10.19378 -10.19378
 Alpha  occ. eigenvalues --  -10.17482 -10.17481  -7.95562  -7.95561  -5.91872
 Alpha  occ. eigenvalues --   -5.91871  -5.91485  -5.91484  -5.91134  -5.91133
 Alpha  occ. eigenvalues --   -1.07458  -1.07390  -1.05100  -1.05098  -1.04377
 Alpha  occ. eigenvalues --   -1.04376  -1.03604  -1.03604  -0.88794  -0.87006
 Alpha  occ. eigenvalues --   -0.79742  -0.79666  -0.77488  -0.77275  -0.76106
 Alpha  occ. eigenvalues --   -0.73749  -0.73331  -0.71881  -0.70824  -0.69246
 Alpha  occ. eigenvalues --   -0.66998  -0.66725  -0.63207  -0.63047  -0.61494
 Alpha  occ. eigenvalues --   -0.61484  -0.61035  -0.61009  -0.59647  -0.57419
 Alpha  occ. eigenvalues --   -0.55806  -0.55797  -0.53593  -0.51628  -0.51621
 Alpha  occ. eigenvalues --   -0.51608  -0.51580  -0.50318  -0.50295  -0.48932
 Alpha  occ. eigenvalues --   -0.48816  -0.48247  -0.48204  -0.48147  -0.47650
 Alpha  occ. eigenvalues --   -0.47511  -0.46627  -0.45992  -0.45120  -0.45063
 Alpha  occ. eigenvalues --   -0.45045  -0.44944  -0.44241  -0.44221  -0.43052
 Alpha  occ. eigenvalues --   -0.42878  -0.42499  -0.42443  -0.40314  -0.40196
 Alpha  occ. eigenvalues --   -0.40119  -0.39274  -0.38226  -0.37702  -0.37144
 Alpha  occ. eigenvalues --   -0.36755  -0.36656  -0.36079  -0.36043  -0.35916
 Alpha  occ. eigenvalues --   -0.34933  -0.33973  -0.33611  -0.32920  -0.32880
 Alpha  occ. eigenvalues --   -0.32871  -0.32609  -0.32450  -0.32409  -0.32392
 Alpha  occ. eigenvalues --   -0.32221  -0.27386  -0.27307  -0.27299  -0.26739
 Alpha  occ. eigenvalues --   -0.26735  -0.26139  -0.26139  -0.23750  -0.23445
 Alpha  occ. eigenvalues --   -0.18327
 Alpha virt. eigenvalues --   -0.03751   0.01177   0.02303   0.02508   0.04275
 Alpha virt. eigenvalues --    0.04325   0.04739   0.04739   0.04941   0.05113
 Alpha virt. eigenvalues --    0.05441   0.05779   0.06327   0.06689   0.07021

 Mulliken charges:
               1
     1  C   -0.229948
     2  C    0.237212
     3  C   -0.091327
     4  C   -0.304757
     5  S    0.310395
     6  O   -0.382573
     7  H    0.108856
     8  C   -0.229929
     9  C    0.237209
    10  C   -0.091361
    11  C   -0.304753
    12  S    0.310442
    13  O   -0.382566
    14  H    0.108856
    15  C   -0.043388
    16  H    0.116381
    17  H    0.116382
    18  C    0.014356
    19  H    0.105778
    20  H    0.105779
    21  O   -0.392142
    22  C    0.000561
    23  H    0.098541
    24  H    0.098542
    25  C    0.002642
    26  H    0.096513
    27  H    0.096511
    28  O   -0.390018
    29  C    0.000611
    30  H    0.097634
    31  H    0.097636
    32  C   -0.008004
    33  H    0.094228
    34  H    0.094227
    35  O   -0.370436
    36  C   -0.102022
    37  H    0.089289
    38  H    0.115619
    39  H    0.089289
    40  C   -0.043389
    41  H    0.116396
    42  H    0.116390
    43  C    0.014354
    44  H    0.105795
    45  H    0.105779
    46  O   -0.392158
    47  C    0.000557
    48  H    0.098542
    49  H    0.098546
    50  C    0.002638
    51  H    0.096515
    52  H    0.096508
    53  O   -0.390017
    54  C    0.000611
    55  H    0.097633
    56  H    0.097638
    57  C   -0.008004
    58  H    0.094229
    59  H    0.094226
    60  O   -0.370435
    61  C   -0.102024
    62  H    0.089290
    63  H    0.115619
    64  H    0.089291
    65  H    0.127606
    66  H    0.127600
 Sum of Mulliken charges =  -0.00000

 Dipole moment (field-independent basis, Debye):
    X=              0.0001    Y=             -0.0001    Z=              0.0003  Tot=              0.0003
 Quadrupole moment (field-independent basis, Debye-Ang):
   XX=           -165.7946   YY=           -195.2077   ZZ=           -210.4938
   XY=            -18.1483   XZ=              0.0025   YZ=              0.0020

 Normal termination of Gaussian 16 at Mon Jan 13 13:31:09 2020.
