 Gaussian 16, Revision A.03,
 Gaussian 16:  ES64L-G16RevA.03 25-Dec-2016

 ------------------------------
 #p opt freq=Raman b3lyp/6-311g
 ------------------------------

 ----------------
 OBT_opt_freq.gjf
 ----------------
 Symbolic Z-matrix:
 Charge =  0 Multiplicity = 1

 SCF Done:  E(RB3LYP) =  -1333.72305938     A.U. after   15 cycles
 SCF Done:  E(RB3LYP) =  -1333.75893324     A.U. after   15 cycles
 SCF Done:  E(RB3LYP) =  -1333.77936193     A.U. after   16 cycles
 SCF Done:  E(RB3LYP) =  -1333.79937774     A.U. after   13 cycles
 SCF Done:  E(RB3LYP) =  -1333.80543117     A.U. after   13 cycles
 SCF Done:  E(RB3LYP) =  -1333.80703515     A.U. after   13 cycles
 SCF Done:  E(RB3LYP) =  -1333.80752297     A.U. after   13 cycles
 SCF Done:  E(RB3LYP) =  -1333.80765310     A.U. after   12 cycles
 SCF Done:  E(RB3LYP) =  -1333.80773328     A.U. after   12 cycles
 SCF Done:  E(RB3LYP) =  -1333.80779034     A.U. after   12 cycles
 SCF Done:  E(RB3LYP) =  -1333.80998369     A.U. after   10 cycles
 SCF Done:  E(RB3LYP) =  -1333.80998719     A.U. after    9 cycles
 SCF Done:  E(RB3LYP) =  -1333.80998850     A.U. after    8 cycles
 SCF Done:  E(RB3LYP) =  -1333.80998877     A.U. after    8 cycles
 SCF Done:  E(RB3LYP) =  -1333.80998889     A.U. after    7 cycles
 SCF Done:  E(RB3LYP) =  -1333.80998907     A.U. after    8 cycles
 SCF Done:  E(RB3LYP) =  -1333.80998923     A.U. after    8 cycles
 SCF Done:  E(RB3LYP) =  -1333.80998933     A.U. after    7 cycles
 SCF Done:  E(RB3LYP) =  -1333.80998937     A.U. after    7 cycles
 Optimization completed.
    -- Stationary point found.
 Normal termination of Gaussian 16 at Thu Jan  9 11:52:27 2020.

 ------------------------------------------------------------------
 #P Geom=AllCheck Guess=TCheck SCRF=Check GenChk RB3LYP/6-311G Freq
 ------------------------------------------------------------------

 Structure from the checkpoint file:  "/tmp/pbs.943351.pbs/Gau-18061.chk"
 ----------------
 OBT_opt_freq.gjf
 ----------------
 Charge =  0 Multiplicity = 1

                         Standard orientation:
 ---------------------------------------------------------------------
 Center     Atomic      Atomic             Coordinates (Angstroms)
 Number     Number       Type             X           Y           Z
 ---------------------------------------------------------------------
      1          6           0       -0.588233   -0.406727   -0.000080
      2          6           0       -1.914581   -0.020433   -0.000045
      3          6           0       -2.869430   -1.087026    0.000174
      4          6           0       -2.296181   -2.320954    0.000398
      5         16           0       -0.500587   -2.239489    0.000188
      6          8           0       -2.220500    1.337527   -0.000253
      7          1           0       -3.937170   -0.935287    0.000348
      8          6           0        0.588208    0.406542   -0.000123
      9          6           0        1.914566    0.020415   -0.000132
     10          6           0        2.869392    1.087031    0.000130
     11          6           0        2.296090    2.320922    0.000385
     12         16           0        0.500489    2.239458    0.000240
     13          8           0        2.220645   -1.337555   -0.000368
     14          1           0        3.937138    0.935331    0.000118
     15          6           0       -3.615882    1.740500   -0.000466
     16          1           0       -4.129006    1.381642    0.894227
     17          1           0       -4.128846    1.381141   -0.895079
     18          1           0       -3.597207    2.825067   -0.000816
     19          6           0        3.616038   -1.740281   -0.000357
     20          1           0        3.597559   -2.824857   -0.000272
     21          1           0        4.129037   -1.381139   -0.895025
     22          1           0        4.129074   -1.381067    0.894268
     23          1           0        2.775225    3.283105    0.000517
     24          1           0       -2.775310   -3.283137    0.000520
 ---------------------------------------------------------------------

 SCF Done:  E(RB3LYP) =  -1333.80998937     A.U. after    1 cycles

 The electronic state is 1-A.
 Alpha  occ. eigenvalues --  -88.87592 -88.87591 -19.15368 -19.15367 -10.24091
 Alpha  occ. eigenvalues --  -10.24091 -10.23224 -10.23223 -10.21599 -10.21559
 Alpha  occ. eigenvalues --  -10.20502 -10.20501 -10.18484 -10.18484  -7.96247
 Alpha  occ. eigenvalues --   -7.96246  -5.92582  -5.92581  -5.92172  -5.92171
 Alpha  occ. eigenvalues --   -5.91612  -5.91611  -1.06275  -1.06196  -0.88625
 Alpha  occ. eigenvalues --   -0.86930  -0.77679  -0.75545  -0.74147  -0.72148
 Alpha  occ. eigenvalues --   -0.69817  -0.67984  -0.60634  -0.58737  -0.55119
 Alpha  occ. eigenvalues --   -0.54540  -0.53755  -0.48352  -0.47395  -0.47189
 Alpha  occ. eigenvalues --   -0.46847  -0.45930  -0.44874  -0.44673  -0.41748
 Alpha  occ. eigenvalues --   -0.41504  -0.40522  -0.37794  -0.36824  -0.35857
 Alpha  occ. eigenvalues --   -0.34396  -0.32497  -0.32140  -0.31825  -0.31756
 Alpha  occ. eigenvalues --   -0.27697  -0.23859  -0.23675  -0.18393
 Alpha virt. eigenvalues --   -0.04312   0.01153   0.01161   0.02426   0.04320
 Alpha virt. eigenvalues --    0.04399   0.06078   0.06767   0.07001   0.07641
 Alpha virt. eigenvalues --    0.08658   0.09988   0.10651   0.10905   0.11009

 Mulliken charges:
               1
     1  C   -0.349943
     2  C    0.351842
     3  C   -0.068425
     4  C   -0.465518
     5  S    0.412112
     6  O   -0.534282
     7  H    0.183013
     8  C   -0.349826
     9  C    0.351832
    10  C   -0.068430
    11  C   -0.465525
    12  S    0.412084
    13  O   -0.534269
    14  H    0.183022
    15  C   -0.288996
    16  H    0.183379
    17  H    0.183379
    18  H    0.203595
    19  C   -0.289012
    20  H    0.203586
    21  H    0.183376
    22  H    0.183367
    23  H    0.189817
    24  H    0.189821
 Sum of Mulliken charges =  -0.00000

 Dipole moment (field-independent basis, Debye):
    X=             -0.0006    Y=              0.0005    Z=              0.0001  Tot=              0.0007
 Quadrupole moment (field-independent basis, Debye-Ang):
   XX=            -66.0763   YY=            -91.2546   ZZ=           -103.0469
   XY=             -2.8803   XZ=              0.0004   YZ=             -0.0010

  Exact polarizability: 226.990  12.225 180.835  -0.001   0.000  67.118
 Approx polarizability: 371.534  21.306 301.613  -0.003   0.002  92.730

                      1                      2                      3
                      A                      A                      A
 Frequencies --     27.1999                50.5504                56.9218
 Red. masses --      4.2825                 3.5045                 4.3666
 Frc consts  --      0.0019                 0.0053                 0.0083
 IR Inten    --      3.3757                 0.0009                14.6503
 Raman Activ --      0.0000                 0.4614                 0.0000

                      4                      5                      6
                      A                      A                      A
 Frequencies --    108.2111               109.1632               161.3018
 Red. masses --      5.0273                 4.7437                 4.7962
 Frc consts  --      0.0347                 0.0333                 0.0735
 IR Inten    --      4.0769                 1.1741                 0.0000
 Raman Activ --      0.0000                 0.0000                 3.4132

                      7                      8                      9
                      A                      A                      A
 Frequencies --    170.2943               203.6328               232.7720
 Red. masses --      2.5093                 1.2988                 1.4760
 Frc consts  --      0.0429                 0.0317                 0.0471
 IR Inten    --      0.0000                 0.2419                 0.0000
 Raman Activ --      5.9401                 0.0000                 0.9243

                     10                     11                     12
                      A                      A                      A
 Frequencies --    255.4857               263.5648               273.8618
 Red. masses --      3.6971                10.1859                 3.6481
 Frc consts  --      0.1422                 0.4169                 0.1612
 IR Inten    --      2.4043                 0.0000                 0.9084
 Raman Activ --      0.0000                 5.5560                 0.0000

                     13                     14                     15
                      A                      A                      A
 Frequencies --    320.8064               338.3199               419.7294
 Red. masses --      4.0863                 6.0626                 7.5568
 Frc consts  --      0.2478                 0.4088                 0.7844
 IR Inten    --      0.0000                 0.0000                 3.2721
 Raman Activ --     13.2903                 4.5044                 0.0000

                     16                     17                     18
                      A                      A                      A
 Frequencies --    445.2157               448.9726               507.2497
 Red. masses --     12.1258                 4.4826                 4.7260
 Frc consts  --      1.4161                 0.5324                 0.7165
 IR Inten    --      0.0000                 2.5415                 0.0000
 Raman Activ --     20.8017                 0.0000                 0.6470

                     19                     20                     21
                      A                      A                      A
 Frequencies --    569.8687               619.4209               627.7530
 Red. masses --      6.2280                 2.7134                 4.8634
 Frc consts  --      1.1916                 0.6134                 1.1292
 IR Inten    --     11.8479                33.5836                 0.0000
 Raman Activ --      0.0000                 0.0000                14.5204

                     22                     23                     24
                      A                      A                      A
 Frequencies --    632.0485               648.4072               679.5187
 Red. masses --      2.1702                 7.4917                 8.5530
 Frc consts  --      0.5108                 1.8558                 2.3269
 IR Inten    --      0.0000                11.8220                 0.0000
 Raman Activ --      5.4038                 0.0000                50.0355

                     25                     26                     27
                      A                      A                      A
 Frequencies --    714.5186               741.8209               752.6621
 Red. masses --      1.5829                 1.9400                 6.4887
 Frc consts  --      0.4761                 0.6290                 2.1657
 IR Inten    --    127.2640                 0.0001                17.7542
 Raman Activ --      0.0000                 5.8455                 0.0000

                     28                     29                     30
                      A                      A                      A
 Frequencies --    787.8585               793.5595               893.2338
 Red. masses --      5.2481                 9.9916                 1.3148
 Frc consts  --      1.9193                 3.7072                 0.6181
 IR Inten    --      0.0002                23.8268                 2.9101
 Raman Activ --      8.2815                 0.0001                 3.2879

                     31                     32                     33
                      A                      A                      A
 Frequencies --    893.2527               915.5559               935.6406
 Red. masses --      1.3155                 6.3657                 4.8183
 Frc consts  --      0.6184                 3.1439                 2.4852
 IR Inten    --      4.8722                 0.0001                11.7185
 Raman Activ --      1.9611                25.7920                 0.0000

                     34                     35                     36
                      A                      A                      A
 Frequencies --   1057.4495              1089.9030              1130.5930
 Red. masses --      6.3862                 3.5988                 1.4679
 Frc consts  --      4.2074                 2.5187                 1.1055
 IR Inten    --    300.0187                 0.0004                 0.0000
 Raman Activ --      0.0000                16.5289                51.8116

                     37                     38                     39
                      A                      A                      A
 Frequencies --   1135.8935              1157.9004              1158.3132
 Red. masses --      1.1457                 1.2458                 1.2462
 Frc consts  --      0.8710                 0.9841                 0.9851
 IR Inten    --      7.6164                 0.0032                 1.2285
 Raman Activ --      0.0001                13.5432                 0.0347

                     40                     41                     42
                      A                      A                      A
 Frequencies --   1193.5274              1196.1619              1253.3505
 Red. masses --      1.3885                 1.3638                 2.4208
 Frc consts  --      1.1653                 1.1497                 2.2406
 IR Inten    --      0.0000                 0.5773                 0.0000
 Raman Activ --     31.2540                 0.0012                43.4940

                     43                     44                     45
                      A                      A                      A
 Frequencies --   1266.3166              1287.5048              1384.8670
 Red. masses --      2.2190                 3.6064                 2.5746
 Frc consts  --      2.0965                 3.5222                 2.9093
 IR Inten    --    309.3556                 0.0002               143.6800
 Raman Activ --      0.0000                 4.9105                 0.0001

                     46                     47                     48
                      A                      A                      A
 Frequencies --   1409.1646              1472.0791              1495.8064
 Red. masses --      2.9604                 6.6988                 1.2408
 Frc consts  --      3.4635                 8.5528                 1.6357
 IR Inten    --      0.0000                17.3210                 0.0001
 Raman Activ --     24.2608                 0.0032               182.4719

                     49                     50                     51
                      A                      A                      A
 Frequencies --   1496.8779              1507.4446              1526.0339
 Red. masses --      1.2491                 5.5125                 1.0524
 Frc consts  --      1.6489                 7.3805                 1.4440
 IR Inten    --      0.5170                 0.0000                14.0360
 Raman Activ --      0.0519              1855.1954                14.8092

                     52                     53                     54
                      A                      A                      A
 Frequencies --   1526.0474              1537.6853              1539.0892
 Red. masses --      1.0525                 1.0737                 1.0598
 Frc consts  --      1.4441                 1.4958                 1.4792
 IR Inten    --      6.1672                76.7272                 0.0038
 Raman Activ --     33.7080                 0.0007                14.3466

                     55                     56                     57
                      A                      A                      A
 Frequencies --   1578.4012              1620.4538              3006.1679
 Red. masses --      5.1765                 7.5183                 1.0332
 Frc consts  --      7.5984                11.6317                 5.5010
 IR Inten    --    113.3623                 0.0001               165.4839
 Raman Activ --      0.0004              1072.4743                 0.3821

                     58                     59                     60
                      A                      A                      A
 Frequencies --   3006.7913              3075.3958              3075.4879
 Red. masses --      1.0333                 1.1053                 1.1053
 Frc consts  --      5.5042                 6.1592                 6.1597
 IR Inten    --      0.1800                11.7350                76.9329
 Raman Activ --    349.1738               164.7087                25.1070

                     61                     62                     63
                      A                      A                      A
 Frequencies --   3150.3419              3150.4166              3216.7840
 Red. masses --      1.0987                 1.0987                 1.0903
 Frc consts  --      6.4247                 6.4250                 6.6470
 IR Inten    --     11.8509                20.9970                24.4343
 Raman Activ --    107.5784                60.6544                 0.0200

                     64                     65                     66
                      A                      A                      A
 Frequencies --   3217.0439              3266.4016              3266.5389
 Red. masses --      1.0904                 1.0992                 1.0992
 Frc consts  --      6.6490                 6.9096                 6.9102
 IR Inten    --      0.0021                 0.2784                 0.0061
 Raman Activ --    245.4661                 8.2249               366.5161

 - Thermochemistry -
 -------------------
 Temperature   298.150 Kelvin.  Pressure   1.00000 Atm.
 Atom     1 has atomic number  6 and mass  12.00000

 Molecular mass:   226.01222 amu.
 Principal axes and moments of inertia in atomic units:
                           1         2         3
     Eigenvalues --  2363.904473762.341596103.20082
           X            0.99901  -0.04443   0.00000
           Y            0.04443   0.99901  -0.00000
           Z           -0.00000   0.00000   1.00000
 This molecule is an asymmetric top.
 Rotational symmetry number  1.
 Warning -- assumption of classical behavior for rotation
           may cause significant error
 Rotational temperatures (Kelvin)      0.03664     0.02302     0.01419
 Rotational constants (GHZ):           0.76346     0.47969     0.29570
 Zero-point vibrational energy     466846.3 (Joules/Mol)
                                  111.57894 (Kcal/Mol)
 Warning -- explicit consideration of  20 degrees of freedom as
           vibrations may cause significant error
 Vibrational temperatures:     39.13    72.73    81.90   155.69   157.06
          (Kelvin)            232.08   245.02   292.98   334.91   367.59
                              379.21   394.03   461.57   486.77   603.90
                              640.57   645.97   729.82   819.91   891.21
                              903.20   909.38   932.91   977.68  1028.03
                             1067.31  1082.91  1133.55  1141.76  1285.16
                             1285.19  1317.28  1346.18  1521.43  1568.13
                             1626.67  1634.30  1665.96  1666.55  1717.22
                             1721.01  1803.29  1821.95  1852.43  1992.51
                             2027.47  2117.99  2152.13  2153.67  2168.88
                             2195.62  2195.64  2212.39  2214.41  2270.97
                             2331.47  4325.21  4326.10  4424.81  4424.94
                             4532.64  4532.75  4628.23  4628.61  4699.62
                             4699.82

 Zero-point correction=                           0.177812 (Hartree/Particle)
 Thermal correction to Energy=                    0.191940
 Thermal correction to Enthalpy=                  0.192884
 Thermal correction to Gibbs Free Energy=         0.135472
 Sum of electronic and zero-point Energies=          -1333.632177
 Sum of electronic and thermal Energies=             -1333.618050
 Sum of electronic and thermal Enthalpies=           -1333.617106
 Sum of electronic and thermal Free Energies=        -1333.674518

                     E (Thermal)             CV                S
                      KCal/Mol        Cal/Mol-Kelvin    Cal/Mol-Kelvin
 Total                  120.444             51.799            120.833
 Electronic               0.000              0.000              0.000
 Translational            0.889              2.981             42.149
 Rotational               0.889              2.981             32.362
 Vibrational            118.666             45.838             46.323
 Vibration     1          0.593              1.984              6.024
 Vibration     2          0.595              1.977              4.796
 Vibration     3          0.596              1.975              4.561
 Vibration     4          0.606              1.943              3.301
 Vibration     5          0.606              1.942              3.284
 Vibration     6          0.622              1.890              2.534
 Vibration     7          0.625              1.879              2.432
 Vibration     8          0.639              1.835              2.100
 Vibration     9          0.654              1.791              1.857
 Vibration    10          0.666              1.754              1.692
 Vibration    11          0.670              1.740              1.638
 Vibration    12          0.676              1.722              1.572
 Vibration    13          0.706              1.634              1.306
 Vibration    14          0.719              1.599              1.220
 Vibration    15          0.782              1.427              0.893
 Vibration    16          0.805              1.371              0.810
 Vibration    17          0.808              1.363              0.799
 Vibration    18          0.862              1.234              0.640
 Vibration    19          0.926              1.096              0.504
 Vibration    20          0.979              0.991              0.417

 Optimization completed.
    -- Stationary point found.
 Normal termination of Gaussian 16 at Thu Jan  9 11:56:50 2020.
