 Gaussian 16, Revision A.03,
 Gaussian 16:  ES64L-G16RevA.03 25-Dec-2016

 ------------------------------
 #p opt freq=Raman b3lyp/6-311g
 ------------------------------

 -------------------
 OBT_2m_opt_freq.gjf
 -------------------
 Symbolic Z-matrix:
 Charge =  0 Multiplicity = 1

 SCF Done:  E(RB3LYP) =  -2666.37584729     A.U. after   16 cycles
 SCF Done:  E(RB3LYP) =  -2666.41063365     A.U. after   14 cycles
 SCF Done:  E(RB3LYP) =  -2666.42074397     A.U. after   16 cycles
 SCF Done:  E(RB3LYP) =  -2666.43347317     A.U. after   14 cycles
 SCF Done:  E(RB3LYP) =  -2666.43409779     A.U. after   13 cycles
 SCF Done:  E(RB3LYP) =  -2666.43415662     A.U. after   11 cycles
 SCF Done:  E(RB3LYP) =  -2666.43417053     A.U. after   11 cycles
 SCF Done:  E(RB3LYP) =  -2666.43417152     A.U. after    7 cycles
 Optimization completed.
    -- Stationary point found.
 Normal termination of Gaussian 16 at Fri Jan 10 10:48:38 2020.

 ------------------------------------------------------------------
 #P Geom=AllCheck Guess=TCheck SCRF=Check GenChk RB3LYP/6-311G Freq
 ------------------------------------------------------------------

 Structure from the checkpoint file:  "/tmp/pbs.945609.pbs/Gau-38650.chk"
 -------------------
 OBT_2m_opt_freq.gjf
 -------------------
 Charge =  0 Multiplicity = 1

                         Standard orientation:
 ---------------------------------------------------------------------
 Center     Atomic      Atomic             Coordinates (Angstroms)
 Number     Number       Type             X           Y           Z
 ---------------------------------------------------------------------
      1          6           0        4.672191   -0.134257   -0.000044
      2          6           0        5.345882    1.074519   -0.000099
      3          6           0        6.773322    0.986547   -0.000068
      4          6           0        7.233160   -0.294643    0.000039
      5         16           0        5.899424   -1.499884   -0.000096
      6          8           0        4.608329    2.254725   -0.000147
      7          1           0        7.426628    1.844630   -0.000072
      8          6           0        3.268261   -0.380034    0.000001
      9          6           0        2.591073   -1.588150    0.000034
     10          6           0        1.174172   -1.507606    0.000060
     11          6           0        0.678211   -0.223749    0.000047
     12         16           0        2.046167    0.986938    0.000048
     13          8           0        3.331185   -2.765456    0.000038
     14          1           0        0.529994   -2.372712    0.000079
     15          6           0        5.317460    3.522425   -0.000086
     16          1           0        5.934738    3.627310   -0.894730
     17          1           0        5.934670    3.627260    0.894611
     18          1           0        4.541976    4.280881   -0.000096
     19          6           0        2.625548   -4.036019    0.000019
     20          1           0        3.403944   -4.791372    0.000001
     21          1           0        2.008609   -4.141813    0.894609
     22          1           0        2.008599   -4.141780   -0.894567
     23          1           0        8.250532   -0.641582    0.000118
     24          6           0       -3.268254    0.379958    0.000033
     25          6           0       -2.590903    1.588041    0.000088
     26          6           0       -1.174083    1.507436    0.000101
     27          6           0       -0.678304    0.223498    0.000054
     28         16           0       -2.046204   -0.986998    0.000013
     29          8           0       -3.331032    2.765392    0.000118
     30          1           0       -0.529843    2.372494    0.000137
     31          6           0       -4.672140    0.134212    0.000002
     32          6           0       -5.345972   -1.074478   -0.000073
     33          6           0       -6.773405   -0.986317   -0.000040
     34          6           0       -7.233109    0.294916    0.000078
     35         16           0       -5.899197    1.499994    0.000030
     36          8           0       -4.608570   -2.254771   -0.000140
     37          1           0       -7.426815   -1.844328   -0.000069
     38          6           0       -2.625400    4.035968    0.000276
     39          1           0       -2.008432    4.141812   -0.894284
     40          1           0       -2.008519    4.141639    0.894916
     41          1           0       -3.403841    4.791274    0.000310
     42          6           0       -5.317913   -3.522350   -0.000270
     43          1           0       -4.542552   -4.280932   -0.000327
     44          1           0       -5.935190   -3.627192    0.894380
     45          1           0       -5.935161   -3.627025   -0.894961
     46          1           0       -8.250435    0.641986    0.000148
 ---------------------------------------------------------------------

 SCF Done:  E(RB3LYP) =  -2666.43417152     A.U. after    2 cycles

 The electronic state is 1-A.
 Alpha  occ. eigenvalues --  -88.87734 -88.87734 -88.87515 -88.87514 -19.15651
 Alpha  occ. eigenvalues --  -19.15651 -19.15461 -19.15460 -10.24343 -10.24343
 Alpha  occ. eigenvalues --  -10.24314 -10.24314 -10.23453 -10.23453 -10.23170
 Alpha  occ. eigenvalues --  -10.23169 -10.22212 -10.22172 -10.21871 -10.21871
 Alpha  occ. eigenvalues --  -10.21801 -10.21801 -10.20657 -10.20657 -10.18648
 Alpha  occ. eigenvalues --  -10.18648 -10.18412 -10.18412  -7.96387  -7.96386
 Alpha  occ. eigenvalues --   -7.96167  -7.96166  -5.92723  -5.92723  -5.92524
 Alpha  occ. eigenvalues --   -5.92523  -5.92313  -5.92312  -5.92119  -5.92118
 Alpha  occ. eigenvalues --   -5.91749  -5.91748  -5.91491  -5.91490  -1.06509
 Alpha  occ. eigenvalues --   -1.06508  -1.06354  -1.06351  -0.89460  -0.88530
 Alpha  occ. eigenvalues --   -0.87673  -0.86392  -0.79538  -0.77317  -0.75964
 Alpha  occ. eigenvalues --   -0.75366  -0.74483  -0.74241  -0.72505  -0.72423
 Alpha  occ. eigenvalues --   -0.70311  -0.69899  -0.69230  -0.66865  -0.62795
 Alpha  occ. eigenvalues --   -0.60445  -0.59423  -0.57575  -0.55567  -0.54853
 Alpha  occ. eigenvalues --   -0.54647  -0.54002  -0.53929  -0.52137  -0.49500
 Alpha  occ. eigenvalues --   -0.48077  -0.47571  -0.47559  -0.47272  -0.47238
 Alpha  occ. eigenvalues --   -0.46948  -0.46879  -0.46222  -0.45293  -0.44994
 Alpha  occ. eigenvalues --   -0.44865  -0.44289  -0.42848  -0.41909  -0.41751
 Alpha  occ. eigenvalues --   -0.41412  -0.41230  -0.40511  -0.38769  -0.38433
 Alpha  occ. eigenvalues --   -0.37557  -0.36604  -0.36341  -0.35341  -0.34743
 Alpha  occ. eigenvalues --   -0.34387  -0.34201  -0.32656  -0.32388  -0.32292
 Alpha  occ. eigenvalues --   -0.32229  -0.32069  -0.31142  -0.31100  -0.29000
 Alpha  occ. eigenvalues --   -0.26592  -0.24235  -0.24180  -0.23657  -0.23519
 Alpha  occ. eigenvalues --   -0.19973  -0.16598
 Alpha virt. eigenvalues --   -0.07013  -0.02840  -0.00234   0.00613   0.00930
 Alpha virt. eigenvalues --    0.02131   0.02325   0.03611   0.04107   0.04156
 Alpha virt. eigenvalues --    0.04458   0.04630   0.05056   0.06391   0.06655

 Mulliken charges:
               1
     1  C   -0.364879
     2  C    0.354195
     3  C   -0.069945
     4  C   -0.461231
     5  S    0.418285
     6  O   -0.535246
     7  H    0.183384
     8  C   -0.311943
     9  C    0.302110
    10  C   -0.084527
    11  C   -0.345353
    12  S    0.493151
    13  O   -0.538588
    14  H    0.204017
    15  C   -0.288840
    16  H    0.184507
    17  H    0.184507
    18  H    0.202090
    19  C   -0.291478
    20  H    0.203235
    21  H    0.186347
    22  H    0.186347
    23  H    0.189881
    24  C   -0.311929
    25  C    0.302106
    26  C   -0.084495
    27  C   -0.345445
    28  S    0.493179
    29  O   -0.538608
    30  H    0.204027
    31  C   -0.364941
    32  C    0.354246
    33  C   -0.069983
    34  C   -0.461212
    35  S    0.418292
    36  O   -0.535229
    37  H    0.183384
    38  C   -0.291468
    39  H    0.186343
    40  H    0.186344
    41  H    0.203235
    42  C   -0.288852
    43  H    0.202089
    44  H    0.184508
    45  H    0.184509
    46  H    0.189877
 Sum of Mulliken charges =  -0.00000

 Dipole moment (field-independent basis, Debye):
    X=             -0.0002    Y=              0.0000    Z=              0.0002  Tot=              0.0003
 Quadrupole moment (field-independent basis, Debye-Ang):
   XX=           -158.1650   YY=           -148.9829   ZZ=           -203.6299
   XY=             24.7011   XZ=              0.0008   YZ=              0.0023

  Exact polarizability: 784.479  21.736 360.691  -0.001   0.005 129.275
 Approx polarizability:1174.868  44.259 627.405  -0.001   0.008 185.081

                      1                      2                      3
                      A                      A                      A
 Frequencies --      2.3036                21.7905                26.2281
 Red. masses --      4.7899                 7.7056                 4.4051
 Frc consts  --      0.0000                 0.0022                 0.0018
 IR Inten    --      0.0116                 0.0016                 0.0000
 Raman Activ --      0.0000                 0.0000                 1.8688

                      4                      5                      6
                      A                      A                      A
 Frequencies --     33.6660                36.2930                49.5918
 Red. masses --      4.1984                 5.9962                 4.4121
 Frc consts  --      0.0028                 0.0047                 0.0064
 IR Inten    --     13.3975                 0.1722                 0.0000
 Raman Activ --      0.0000                 0.0000                 2.9353

                      7                      8                      9
                      A                      A                      A
 Frequencies --     53.5282                56.1778                69.7806
 Red. masses --      3.5435                 3.5819                 5.2767
 Frc consts  --      0.0060                 0.0067                 0.0151
 IR Inten    --      0.6176                 0.0000                17.0081
 Raman Activ --      0.0000                 1.1651                 0.0000

                     10                     11                     12
                      A                      A                      A
 Frequencies --     79.9198                87.7198               116.9698
 Red. masses --      5.1073                 7.8666                 4.9120
 Frc consts  --      0.0192                 0.0357                 0.0396
 IR Inten    --      0.0000                 0.0000                 6.7584
 Raman Activ --      9.8764                 0.9219                 0.0000

                     13                     14                     15
                      A                      A                      A
 Frequencies --    117.9455               144.0304               156.0677
 Red. masses --      4.8591                 3.9106                12.1196
 Frc consts  --      0.0398                 0.0478                 0.1739
 IR Inten    --      2.4020                 0.0000                 0.0000
 Raman Activ --      0.0000                 8.4838                 1.2384

                     16                     17                     18
                      A                      A                      A
 Frequencies --    159.2638               161.8958               167.1760
 Red. masses --      3.9746                 4.9517                 2.5528
 Frc consts  --      0.0594                 0.0765                 0.0420
 IR Inten    --      0.0000                 1.1237                 0.0000
 Raman Activ --      7.7969                 0.0000                 0.0000

                     19                     20                     21
                      A                      A                      A
 Frequencies --    188.0874               198.4904               205.1125
 Red. masses --      1.4501                 4.9705                 1.3010
 Frc consts  --      0.0302                 0.1154                 0.0322
 IR Inten    --      0.0000                 0.0000                 0.3257
 Raman Activ --      2.5026                28.7406                 0.0000

                     22                     23                     24
                      A                      A                      A
 Frequencies --    212.5638               231.8093               260.1087
 Red. masses --      1.4324                 1.4630                 2.3080
 Frc consts  --      0.0381                 0.0463                 0.0920
 IR Inten    --      0.0000                 0.0000                 0.0000
 Raman Activ --      0.9663                 0.0000                 0.5590

                     25                     26                     27
                      A                      A                      A
 Frequencies --    260.3410               273.5586               273.6203
 Red. masses --      5.0683                 7.0550                 3.9406
 Frc consts  --      0.2024                 0.3111                 0.1738
 IR Inten    --      0.8253                11.7797                 2.3182
 Raman Activ --      0.0000                 0.0000                 0.0001

                     28                     29                     30
                      A                      A                      A
 Frequencies --    273.8960               286.9271               322.6334
 Red. masses --      4.2869                 4.2587                 4.0405
 Frc consts  --      0.1895                 0.2066                 0.2478
 IR Inten    --      0.0011                 0.0000                 0.6450
 Raman Activ --      0.5317                15.6068                 0.0000

                     31                     32                     33
                      A                      A                      A
 Frequencies --    344.4139               359.1267               362.4037
 Red. masses --      7.2986                13.1397                 7.0725
 Frc consts  --      0.5101                 0.9985                 0.5473
 IR Inten    --      0.3290                 0.0000                 0.0000
 Raman Activ --      0.0000                34.9159                11.0391

                     34                     35                     36
                      A                      A                      A
 Frequencies --    377.3316               424.3316               426.2148
 Red. masses --      6.0620                 8.0294                 8.5247
 Frc consts  --      0.5085                 0.8518                 0.9124
 IR Inten    --      0.0000                 6.4637                 0.0000
 Raman Activ --    164.0025                 0.0001               161.4702

                     37                     38                     39
                      A                      A                      A
 Frequencies --    454.1246               456.9268               470.9029
 Red. masses --     13.1694                 5.1791                 9.7528
 Frc consts  --      1.6002                 0.6371                 1.2742
 IR Inten    --      0.3390                11.0760                 0.0000
 Raman Activ --      0.0000                 0.0000                28.8438

                     40                     41                     42
                      A                      A                      A
 Frequencies --    479.8816               505.9468               568.9300
 Red. masses --      4.9814                 4.8095                 6.4849
 Frc consts  --      0.6759                 0.7254                 1.2367
 IR Inten    --      0.0000                 1.6349                17.2237
 Raman Activ --      1.0159                 0.0000                 0.0013

                     43                     44                     45
                      A                      A                      A
 Frequencies --    569.5721               569.9216               619.1631
 Red. masses --      3.9483                 6.4747                 2.8488
 Frc consts  --      0.7547                 1.2391                 0.6435
 IR Inten    --      0.0000                 0.0009                34.5878
 Raman Activ --     12.0058                24.6511                 0.0002

                     46                     47                     48
                      A                      A                      A
 Frequencies --    619.5703               629.4572               638.0286
 Red. masses --      2.7772                 5.7257                 5.8215
 Frc consts  --      0.6281                 1.3366                 1.3963
 IR Inten    --      0.0009                 5.8473                 0.0002
 Raman Activ --      7.3449                 0.0001                75.8448

                     49                     50                     51
                      A                      A                      A
 Frequencies --    639.0667               639.6314               644.3034
 Red. masses --      3.5796                 7.1713                 4.3735
 Frc consts  --      0.8614                 1.7287                 1.0697
 IR Inten    --     13.1129                18.3862                 0.0000
 Raman Activ --      0.0001                 0.0016                21.4913

                     52                     53                     54
                      A                      A                      A
 Frequencies --    676.2514               681.8261               723.6200
 Red. masses --      8.1266                 8.0338                 5.0240
 Frc consts  --      2.1896                 2.2005                 1.5499
 IR Inten    --     20.4013                 0.0001                 0.0000
 Raman Activ --      0.0024               467.0258              1001.6331

                     55                     56                     57
                      A                      A                      A
 Frequencies --    726.5058               726.9222               755.4126
 Red. masses --      1.7827                 1.8068                 7.3657
 Frc consts  --      0.5544                 0.5625                 2.4765
 IR Inten    --    114.3583                 0.0305                45.7464
 Raman Activ --      0.0031                11.8498                 0.0008

                     58                     59                     60
                      A                      A                      A
 Frequencies --    771.4983               789.5869               794.3240
 Red. masses --      5.7502                 8.0731                 7.8648
 Frc consts  --      2.0165                 2.9654                 2.9237
 IR Inten    --      0.0000                13.0709                36.9440
 Raman Activ --     12.6104                 0.0006                 0.0009

                     61                     62                     63
                      A                      A                      A
 Frequencies --    795.9148               843.9843               852.9116
 Red. masses --      9.5443                 1.4753                 1.5460
 Frc consts  --      3.5623                 0.6192                 0.6626
 IR Inten    --      0.0005                59.0885                 0.0000
 Raman Activ --     52.1182                 0.0000                21.1193

                     64                     65                     66
                      A                      A                      A
 Frequencies --    892.7572               892.7744               910.8770
 Red. masses --      1.3173                 1.3173                 7.5786
 Frc consts  --      0.6186                 0.6186                 3.7047
 IR Inten    --      5.9477                 2.2794                 0.0000
 Raman Activ --      3.9962                10.4400               362.0884

                     67                     68                     69
                      A                      A                      A
 Frequencies --    917.7301               938.8650               953.0967
 Red. masses --      6.5780                 5.5546                 6.1943
 Frc consts  --      3.2642                 2.8848                 3.3152
 IR Inten    --     43.9064                 0.0000                26.6643
 Raman Activ --      0.0001                66.3419                 0.0002

                     70                     71                     72
                      A                      A                      A
 Frequencies --   1061.5749              1061.7342              1097.9473
 Red. masses --      6.1440                 6.0856                 6.2382
 Frc consts  --      4.0795                 4.0419                 4.4307
 IR Inten    --    587.5385                 0.1172                25.7307
 Raman Activ --      0.0134                86.8158                 0.0376

                     73                     74                     75
                      A                      A                      A
 Frequencies --   1099.0210              1133.1029              1133.2175
 Red. masses --      5.9898                 1.2652                 1.2702
 Frc consts  --      4.2626                 0.9571                 0.9610
 IR Inten    --      0.0018                 8.1480                 0.0005
 Raman Activ --    672.7810                 0.0102               164.7739

                     76                     77                     78
                      A                      A                      A
 Frequencies --   1157.7753              1157.7890              1158.3599
 Red. masses --      1.2461                 1.2461                 1.2465
 Frc consts  --      0.9841                 0.9842                 0.9854
 IR Inten    --      0.4170                 0.0119                 2.0017
 Raman Activ --      0.6482                21.8886                 0.0081

                     79                     80                     81
                      A                      A                      A
 Frequencies --   1158.3690              1186.6300              1194.2200
 Red. masses --      1.2464                 1.9000                 1.3864
 Frc consts  --      0.9853                 1.5763                 1.1650
 IR Inten    --      0.0059                 0.0000                 0.0001
 Raman Activ --      2.4604              2751.5736              1884.3318

                     82                     83                     84
                      A                      A                      A
 Frequencies --   1194.7333              1198.8672              1210.9242
 Red. masses --      1.3768                 1.3483                 2.3864
 Frc consts  --      1.1579                 1.1418                 2.0617
 IR Inten    --      2.4025                 3.2171                 0.0001
 Raman Activ --      0.1130                 0.0013                56.9975

                     85                     86                     87
                      A                      A                      A
 Frequencies --   1238.2237              1255.4655              1262.0456
 Red. masses --      1.5321                 1.9257                 2.2233
 Frc consts  --      1.3840                 1.7883                 2.0864
 IR Inten    --    150.4680                 0.0001               218.2815
 Raman Activ --      0.0002              3003.3780                 0.0107

                     88                     89                     90
                      A                      A                      A
 Frequencies --   1267.6294              1283.4369              1290.7797
 Red. masses --      2.3096                 5.2531                 5.9629
 Frc consts  --      2.1866                 5.0981                 5.8534
 IR Inten    --      0.0001               253.6426                 0.0022
 Raman Activ --     20.5475                 0.0059              2382.4557

                     91                     92                     93
                      A                      A                      A
 Frequencies --   1348.8602              1395.4620              1399.5017
 Red. masses --      5.5597                 2.7568                 2.9034
 Frc consts  --      5.9598                 3.1629                 3.3504
 IR Inten    --    284.6862                 0.0001               109.7125
 Raman Activ --      0.0023               292.0910                 0.0022

                     94                     95                     96
                      A                      A                      A
 Frequencies --   1432.6540              1473.2895              1477.8549
 Red. masses --      3.1803                 4.2183                 6.4041
 Frc consts  --      3.8459                 5.3947                 8.2408
 IR Inten    --      0.0001                 0.0001                49.5009
 Raman Activ --   5869.6076             17739.1035                 0.0780

                     97                     98                     99
                      A                      A                      A
 Frequencies --   1487.6151              1494.6874              1496.6925
 Red. masses --      2.7045                 1.2100                 1.2622
 Frc consts  --      3.5263                 1.5927                 1.6658
 IR Inten    --      0.0002                 4.5747                 2.3336
 Raman Activ --  52634.1815                 0.0132                 0.0882

                    100                    101                    102
                      A                      A                      A
 Frequencies --   1497.0976              1508.3478              1512.6401
 Red. masses --      1.3138                 6.4097                 2.0739
 Frc consts  --      1.7349                 8.5919                 2.7958
 IR Inten    --      0.0001                 7.0863                 0.0003
 Raman Activ --   1815.5193                 0.7814             35445.4096

                    103                    104                    105
                      A                      A                      A
 Frequencies --   1525.6122              1525.6233              1526.0794
 Red. masses --      1.0523                 1.0523                 1.0521
 Frc consts  --      1.4431                 1.4431                 1.4437
 IR Inten    --      0.1927                21.7646                 5.4167
 Raman Activ --     51.9329                 0.4484                31.0364

                    106                    107                    108
                      A                      A                      A
 Frequencies --   1526.0935              1537.1109              1537.6759
 Red. masses --      1.0521                 1.0920                 1.0713
 Frc consts  --      1.4437                 1.5201                 1.4924
 IR Inten    --     13.3180               181.7871                 0.0077
 Raman Activ --     12.7077                 0.0385               617.1737

                    109                    110                    111
                      A                      A                      A
 Frequencies --   1538.3297              1538.9831              1568.5532
 Red. masses --      1.0631                 1.0555                 4.3241
 Frc consts  --      1.4822                 1.4729                 6.2682
 IR Inten    --     16.7712                 0.0022               252.9181
 Raman Activ --      0.0203                27.0786                 0.0285

                    112                    113                    114
                      A                      A                      A
 Frequencies --   1582.5831              1607.8754              1631.5739
 Red. masses --      5.6511                 6.8024                 7.6407
 Frc consts  --      8.3391                10.3613                11.9838
 IR Inten    --      0.0002               107.6889                 0.0002
 Raman Activ --  14399.2786                 0.0124              1056.9045

                    115                    116                    117
                      A                      A                      A
 Frequencies --   3007.0011              3007.2140              3008.9374
 Red. masses --      1.0331                 1.0331                 1.0331
 Frc consts  --      5.5039                 5.5048                 5.5108
 IR Inten    --    258.3638                 0.0271                 2.9313
 Raman Activ --      0.0416               394.0771               357.8186

                    118                    119                    120
                      A                      A                      A
 Frequencies --   3008.9754              3076.4811              3076.5010
 Red. masses --      1.0330                 1.1053                 1.1053
 Frc consts  --      5.5107                 6.1639                 6.1640
 IR Inten    --     86.5448                 1.4383                77.6465
 Raman Activ --     12.1319               274.9435                 5.1058

                    121                    122                    123
                      A                      A                      A
 Frequencies --   3078.9364              3078.9981              3150.4476
 Red. masses --      1.1054                 1.1054                 1.0988
 Frc consts  --      6.1741                 6.1744                 6.4256
 IR Inten    --      7.6822                76.8970                 0.2263
 Raman Activ --    104.0010                10.3692               115.1226

                    124                    125                    126
                      A                      A                      A
 Frequencies --   3150.4516              3151.8640              3151.9178
 Red. masses --      1.0988                 1.0991                 1.0990
 Frc consts  --      6.4256                 6.4329                 6.4331
 IR Inten    --     26.3918                43.4804                 0.7389
 Raman Activ --      0.9849                 4.2611               250.1415

                    127                    128                    129
                      A                      A                      A
 Frequencies --   3216.5165              3216.6111              3217.7068
 Red. masses --      1.0904                 1.0904                 1.0927
 Frc consts  --      6.6466                 6.6472                 6.6659
 IR Inten    --     48.9797                 2.4838                 0.1904
 Raman Activ --     19.1130               378.5202                89.4752

                    130                    131                    132
                      A                      A                      A
 Frequencies --   3217.7998              3266.3892              3266.4071
 Red. masses --      1.0924                 1.0990                 1.0990
 Frc consts  --      6.6640                 6.9088                 6.9089
 IR Inten    --     13.6459                 0.1614                 0.0863
 Raman Activ --      1.2743               232.2034               435.4720

 - Thermochemistry -
 -------------------
 Temperature   298.150 Kelvin.  Pressure   1.00000 Atm.
 Atom     1 has atomic number  6 and mass  12.00000

 Molecular mass:   450.00880 amu.
 Principal axes and moments of inertia in atomic units:
                           1         2         3
     Eigenvalues --  6090.88019********************
           X            0.99995   0.01010   0.00000
           Y           -0.01010   0.99995  -0.00002
           Z           -0.00000   0.00002   1.00000
 This molecule is an asymmetric top.
 Rotational symmetry number  1.
 Warning -- assumption of classical behavior for rotation
           may cause significant error
 Rotational temperatures (Kelvin)      0.01422     0.00273     0.00229
 Rotational constants (GHZ):           0.29630     0.05692     0.04780
 Zero-point vibrational energy     881010.2 (Joules/Mol)
                                  210.56649 (Kcal/Mol)
 Warning -- explicit consideration of  46 degrees of freedom as
           vibrations may cause significant error
 Vibrational temperatures:      3.31    31.35    37.74    48.44    52.22
          (Kelvin)             71.35    77.02    80.83   100.40   114.99
                              126.21   168.29   169.70   207.23   224.55
                              229.15   232.93   240.53   270.62   285.58
                              295.11   305.83   333.52   374.24   374.57
                              393.59   393.68   394.08   412.82   464.20
                              495.53   516.70   521.42   542.90   610.52
                              613.23   653.38   657.42   677.52   690.44
                              727.94   818.56   819.49   819.99   890.84
                              891.42   905.65   917.98   919.47   920.29
                              927.01   972.97   981.00  1041.13  1045.28
                             1045.88  1086.87  1110.01  1136.04  1142.86
                             1145.14  1214.31  1227.15  1284.48  1284.50
                             1310.55  1320.41  1350.82  1371.29  1527.37
                             1527.60  1579.70  1581.25  1630.28  1630.45
                             1665.78  1665.80  1666.62  1666.63  1707.30
                             1718.22  1718.95  1724.90  1742.25  1781.53
                             1806.33  1815.80  1823.84  1846.58  1857.14
                             1940.71  2007.76  2013.57  2061.27  2119.74
                             2126.30  2140.35  2150.52  2153.41  2153.99
                             2170.18  2176.35  2195.02  2195.03  2195.69
                             2195.71  2211.56  2212.37  2213.31  2214.25
                             2256.80  2276.98  2313.37  2347.47  4326.40
                             4326.71  4329.19  4329.24  4426.37  4426.40
                             4429.90  4429.99  4532.79  4532.80  4534.83
                             4534.91  4627.85  4627.99  4629.56  4629.70
                             4699.61  4699.63

 Zero-point correction=                           0.335559 (Hartree/Particle)
 Thermal correction to Energy=                    0.364742
 Thermal correction to Enthalpy=                  0.365686
 Thermal correction to Gibbs Free Energy=         0.270002
 Sum of electronic and zero-point Energies=          -2666.098612
 Sum of electronic and thermal Energies=             -2666.069430
 Sum of electronic and thermal Enthalpies=           -2666.068486
 Sum of electronic and thermal Free Energies=        -2666.164170

                     E (Thermal)             CV                S
                      KCal/Mol        Cal/Mol-Kelvin    Cal/Mol-Kelvin
 Total                  228.879            105.754            201.384
 Electronic               0.000              0.000              0.000
 Translational            0.889              2.981             44.201
 Rotational               0.889              2.981             37.231
 Vibrational            227.101             99.792            119.952
 Vibration     1          0.592              1.987             10.928
 Vibration     2          0.593              1.985              6.464
 Vibration     3          0.593              1.985              6.096
 Vibration     4          0.594              1.983              5.601
 Vibration     5          0.594              1.982              5.452
 Vibration     6          0.595              1.978              4.834
 Vibration     7          0.596              1.976              4.683
 Vibration     8          0.596              1.975              4.587
 Vibration     9          0.598              1.969              4.160
 Vibration    10          0.600              1.963              3.893
 Vibration    11          0.601              1.958              3.710
 Vibration    12          0.608              1.935              3.150
 Vibration    13          0.608              1.934              3.134
 Vibration    14          0.616              1.909              2.750
 Vibration    15          0.620              1.896              2.597
 Vibration    16          0.621              1.892              2.559
 Vibration    17          0.622              1.889              2.528
 Vibration    18          0.624              1.883              2.467
 Vibration    19          0.633              1.856              2.247
 Vibration    20          0.637              1.842              2.147
 Vibration    21          0.640              1.833              2.087
 Vibration    22          0.644              1.822              2.022
 Vibration    23          0.653              1.792              1.865
 Vibration    24          0.668              1.746              1.661
 Vibration    25          0.668              1.745              1.659
 Vibration    26          0.676              1.722              1.574
 Vibration    27          0.676              1.722              1.573
 Vibration    28          0.676              1.722              1.571
 Vibration    29          0.684              1.698              1.492
 Vibration    30          0.708              1.630              1.297
 Vibration    31          0.723              1.587              1.192
 Vibration    32          0.734              1.556              1.126
 Vibration    33          0.736              1.550              1.112
 Vibration    34          0.748              1.518              1.050
 Vibration    35          0.786              1.417              0.877
 Vibration    36          0.788              1.413              0.871
 Vibration    37          0.813              1.352              0.783
 Vibration    38          0.815              1.346              0.775
 Vibration    39          0.828              1.315              0.735
 Vibration    40          0.836              1.295              0.710
 Vibration    41          0.861              1.237              0.643
 Vibration    42          0.925              1.098              0.506
 Vibration    43          0.926              1.097              0.505
 Vibration    44          0.926              1.096              0.504
 Vibration    45          0.979              0.991              0.418
 Vibration    46          0.980              0.991              0.417

 Optimization completed.
    -- Stationary point found.
 Normal termination of Gaussian 16 at Fri Jan 10 11:13:06 2020.
