 Gaussian 16, Revision A.03,
 Gaussian 16:  ES64L-G16RevA.03 25-Dec-2016

 ------------------------------
 #p opt freq=Raman b3lyp/6-311g
 ------------------------------

 ---------------
 OT_opt_freq.com
 ---------------
 Symbolic Z-matrix:
 Charge =  0 Multiplicity = 1

 SCF Done:  E(RB3LYP) =  -667.482922506     A.U. after   15 cycles
 SCF Done:  E(RB3LYP) =  -667.498268391     A.U. after   15 cycles
 SCF Done:  E(RB3LYP) =  -667.501644417     A.U. after   13 cycles
 SCF Done:  E(RB3LYP) =  -667.502713516     A.U. after   14 cycles
 SCF Done:  E(RB3LYP) =  -667.502857349     A.U. after   11 cycles
 SCF Done:  E(RB3LYP) =  -667.502910302     A.U. after   11 cycles
 SCF Done:  E(RB3LYP) =  -667.502922050     A.U. after   10 cycles
 SCF Done:  E(RB3LYP) =  -667.502925020     A.U. after    9 cycles
 SCF Done:  E(RB3LYP) =  -667.502926737     A.U. after    8 cycles
 Optimization completed.
    -- Stationary point found.
 Normal termination of Gaussian 16 at Thu Jan  9 10:05:00 2020.

 ------------------------------------------------------------------
 #P Geom=AllCheck Guess=TCheck SCRF=Check GenChk RB3LYP/6-311G Freq
 ------------------------------------------------------------------

 Structure from the checkpoint file:  "/tmp/pbs.943020.pbs/Gau-5660.chk"
 ---------------
 OT_opt_freq.com
 ---------------
 Charge =  0 Multiplicity = 1

                         Standard orientation:
 ---------------------------------------------------------------------
 Center     Atomic      Atomic             Coordinates (Angstroms)
 Number     Number       Type             X           Y           Z
 ---------------------------------------------------------------------
      1          6           0        0.042645   -0.924708   -0.000041
      2          6           0       -0.539423    0.309150   -0.000256
      3          6           0        0.389219    1.409313   -0.000103
      4          6           0        1.687180    1.018054    0.000077
      5         16           0        1.848545   -0.782560    0.000018
      6          8           0       -1.894345    0.608297   -0.000057
      7          1           0        0.056910    2.435290    0.000226
      8          6           0       -2.822858   -0.509546    0.000152
      9          1           0       -2.691598   -1.124025    0.894016
     10          1           0       -2.691397   -1.124392   -0.893333
     11          1           0       -3.811905   -0.064498   -0.000040
     12          1           0       -0.402083   -1.900649   -0.000276
     13          1           0        2.577543    1.619273    0.000605
 ---------------------------------------------------------------------

 SCF Done:  E(RB3LYP) =  -667.502926737     A.U. after    1 cycles

 The electronic state is 1-A.
 Alpha  occ. eigenvalues --  -88.88368 -19.15717 -10.24809 -10.23337 -10.21495
 Alpha  occ. eigenvalues --  -10.20493 -10.18725  -7.97068  -5.93397  -5.93006
 Alpha  occ. eigenvalues --   -5.92437  -1.06685  -0.88258  -0.75604  -0.73980
 Alpha  occ. eigenvalues --   -0.69901  -0.58893  -0.55555  -0.53974  -0.47509
 Alpha  occ. eigenvalues --   -0.46873  -0.45521  -0.41203  -0.39719  -0.39286
 Alpha  occ. eigenvalues --   -0.35840  -0.33346  -0.32546  -0.25351  -0.22670
 Alpha virt. eigenvalues --   -0.01914   0.01363   0.04263   0.05013   0.07048
 Alpha virt. eigenvalues --    0.07269   0.08770   0.10321   0.10733   0.11266
 Alpha virt. eigenvalues --    0.11519   0.19021   0.20071   0.20759   0.23039

 Mulliken charges:
               1
     1  C   -0.479621
     2  C    0.314213
     3  C   -0.032084
     4  C   -0.465496
     5  S    0.293043
     6  O   -0.508647
     7  H    0.188701
     8  C   -0.295045
     9  H    0.183073
    10  H    0.183069
    11  H    0.200662
    12  H    0.211721
    13  H    0.206410
 Sum of Mulliken charges =  -0.00000

 Dipole moment (field-independent basis, Debye):
    X=             -1.2095    Y=             -0.6317    Z=              0.0006  Tot=              1.3646
 Quadrupole moment (field-independent basis, Debye-Ang):
   XX=            -43.6061   YY=            -45.8553   ZZ=            -52.7886
   XY=              7.0084   XZ=              0.0013   YZ=              0.0024

  Exact polarizability:  94.920  -2.509  75.179   0.002  -0.000  35.749
 Approx polarizability: 140.924 -13.860 131.323   0.007  -0.005  46.739

                      1                      2                      3
                      A                      A                      A
 Frequencies --    103.4186               203.6293               217.9317
 Red. masses --      3.3008                 1.2262                 3.4282
 Frc consts  --      0.0208                 0.0300                 0.0959
 IR Inten    --      7.7009                 0.1126                 5.2410
 Raman Activ --      1.4200                 1.1299                 1.9687

                      4                      5                      6
                      A                      A                      A
 Frequencies --    286.7147               438.0739               449.2077
 Red. masses --      3.6283                 3.8466                 4.6362
 Frc consts  --      0.1757                 0.4349                 0.5512
 IR Inten    --      0.6102                 0.0666                 0.4955
 Raman Activ --      0.9115                 1.2142                 4.1414

                      7                      8                      9
                      A                      A                      A
 Frequencies --    529.6553               628.4113               631.9390
 Red. masses --      8.2330                 7.4580                 2.4634
 Frc consts  --      1.3608                 1.7352                 0.5796
 IR Inten    --      2.3246                12.5854                21.9439
 Raman Activ --      8.7811                 6.7508                 0.1207

                     10                     11                     12
                      A                      A                      A
 Frequencies --    681.7667               764.4059               783.7606
 Red. masses --      1.2535                 5.3906                 1.5383
 Frc consts  --      0.3433                 1.8558                 0.5568
 IR Inten    --      0.5984                 0.7599               140.2836
 Raman Activ --      0.5714                12.1081                 1.0976

                     13                     14                     15
                      A                      A                      A
 Frequencies --    801.3094               912.0217               941.1918
 Red. masses --      4.7972                 1.2943                 4.4475
 Frc consts  --      1.8148                 0.6343                 2.3213
 IR Inten    --     30.9522                 0.0924                 9.2015
 Raman Activ --      7.7175                 0.6596                 8.8577

                     16                     17                     18
                      A                      A                      A
 Frequencies --   1021.2437              1116.9485              1162.7544
 Red. masses --      4.2852                 1.1048                 1.2565
 Frc consts  --      2.6332                 0.8121                 1.0009
 IR Inten    --     58.9060                10.2274                 0.5774
 Raman Activ --      2.9184                 4.2057                 5.7060

                     19                     20                     21
                      A                      A                      A
 Frequencies --   1178.3870              1215.0588              1265.1690
 Red. masses --      1.3573                 1.6072                 1.6281
 Frc consts  --      1.1104                 1.3980                 1.5354
 IR Inten    --     39.2591                58.7165                35.3829
 Raman Activ --      7.4788                 4.7973                 0.4281

                     22                     23                     24
                      A                      A                      A
 Frequencies --   1408.3910              1478.7168              1502.9247
 Red. masses --      2.8981                 2.0829                 2.1647
 Frc consts  --      3.3870                 2.6835                 2.8809
 IR Inten    --     74.5557                 2.6457                 6.3671
 Raman Activ --      3.7191                18.2533                41.6755

                     25                     26                     27
                      A                      A                      A
 Frequencies --   1522.0426              1539.3449              1598.2488
 Red. masses --      1.0515                 1.0522                 5.3625
 Frc consts  --      1.4352                 1.4690                 8.0706
 IR Inten    --     11.2470                17.7149                85.8194
 Raman Activ --     20.5334                 8.9635                 0.1170

                     28                     29                     30
                      A                      A                      A
 Frequencies --   3003.4807              3069.7006              3152.6299
 Red. masses --      1.0336                 1.1048                 1.0987
 Frc consts  --      5.4933                 6.1340                 6.4341
 IR Inten    --     42.0568                46.5232                21.2965
 Raman Activ --    125.7551                51.9036               106.5561

                     31                     32                     33
                      A                      A                      A
 Frequencies --   3223.1905              3274.0441              3289.0585
 Red. masses --      1.0917                 1.1000                 1.0963
 Frc consts  --      6.6823                 6.9473                 6.9872
 IR Inten    --      1.1686                 0.6839                 4.0888
 Raman Activ --    107.6413               107.0805                77.5269

 - Thermochemistry -
 -------------------
 Temperature   298.150 Kelvin.  Pressure   1.00000 Atm.
 Atom     1 has atomic number  6 and mass  12.00000

 Molecular mass:   114.01394 amu.
 Principal axes and moments of inertia in atomic units:
                           1         2         3
     Eigenvalues --   329.258731212.663611530.42487
           X            0.99896   0.04552  -0.00000
           Y           -0.04552   0.99896   0.00002
           Z            0.00000  -0.00002   1.00000
 This molecule is an asymmetric top.
 Rotational symmetry number  1.
 Rotational temperatures (Kelvin)      0.26306     0.07142     0.05659
 Rotational constants (GHZ):           5.48123     1.48825     1.17924
 Zero-point vibrational energy     259558.4 (Joules/Mol)
                                   62.03594 (Kcal/Mol)
 Warning -- explicit consideration of   7 degrees of freedom as
           vibrations may cause significant error
 Vibrational temperatures:    148.80   292.98   313.56   412.52   630.29
          (Kelvin)            646.31   762.06   904.14   909.22   980.91
                             1099.81  1127.66  1152.91  1312.20  1354.17
                             1469.34  1607.04  1672.94  1695.44  1748.20
                             1820.30  2026.36  2127.54  2162.37  2189.88
                             2214.77  2299.52  4321.34  4416.61  4535.93
                             4637.45  4710.62  4732.22

 Zero-point correction=                           0.098861 (Hartree/Particle)
 Thermal correction to Energy=                    0.105598
 Thermal correction to Enthalpy=                  0.106542
 Thermal correction to Gibbs Free Energy=         0.067764
 Sum of electronic and zero-point Energies=           -667.404066
 Sum of electronic and thermal Energies=              -667.397329
 Sum of electronic and thermal Enthalpies=            -667.396385
 Sum of electronic and thermal Free Energies=         -667.435163

                     E (Thermal)             CV                S
                      KCal/Mol        Cal/Mol-Kelvin    Cal/Mol-Kelvin
 Total                   66.264             24.836             81.615
 Electronic               0.000              0.000              0.000
 Translational            0.889              2.981             40.109
 Rotational               0.889              2.981             27.904
 Vibrational             64.486             18.874             13.602
 Vibration     1          0.605              1.946              3.389
 Vibration     2          0.639              1.835              2.100
 Vibration     3          0.646              1.814              1.976
 Vibration     4          0.684              1.698              1.493
 Vibration     5          0.798              1.387              0.833
 Vibration     6          0.808              1.363              0.798
 Vibration     7          0.885              1.184              0.588

 Optimization completed.
    -- Stationary point found.
 Normal termination of Gaussian 16 at Thu Jan  9 10:06:25 2020.
