 Gaussian 16, Revision A.03,
 Gaussian 16:  ES64L-G16RevA.03 25-Dec-2016

 ------------------------
 #p opt b3lyp/6-311g(d,p)
 ------------------------

 ------------------------
 3G_1m_0sc_Br_opt_pop.gjf
 ------------------------
 Symbolic Z-matrix:
 Charge =  0 Multiplicity = 1

 SCF Done:  E(RB3LYP) =  -7404.34986800     A.U. after   14 cycles
 SCF Done:  E(RB3LYP) =  -7404.35554751     A.U. after   12 cycles
 SCF Done:  E(RB3LYP) =  -7404.35682949     A.U. after   11 cycles
 SCF Done:  E(RB3LYP) =  -7404.35685896     A.U. after    9 cycles
 SCF Done:  E(RB3LYP) =  -7404.35686140     A.U. after    8 cycles
 SCF Done:  E(RB3LYP) =  -7404.35686179     A.U. after    7 cycles
 Optimization completed.
    -- Stationary point found.

                         Standard orientation:
 ---------------------------------------------------------------------
 Center     Atomic      Atomic             Coordinates (Angstroms)
 Number     Number       Type             X           Y           Z
 ---------------------------------------------------------------------
      1          6           0        0.139696    0.706992    0.000575
      2          6           0        1.375142    1.332796    0.000696
      3          6           0        1.319630    2.755865    0.000695
      4          6           0        0.031106    3.201774    0.000577
      5         16           0       -1.137648    1.923297    0.000903
      6          8           0        2.508302    0.577254    0.000820
      7          1           0        2.178279    3.409440    0.000705
      8          6           0       -0.139778   -0.706816    0.000383
      9          6           0       -1.375169   -1.332682    0.000176
     10          6           0       -1.319572   -2.755773    0.000356
     11          6           0       -0.031019   -3.201672    0.000826
     12         16           0        1.137617   -1.923099    0.000005
     13          8           0       -2.508337   -0.577174    0.000001
     14          1           0       -2.178206   -3.409354    0.000406
     15          6           0        3.769287    1.245634    0.000376
     16          1           0        3.872328    1.874222    0.891342
     17          1           0        3.871792    1.874020   -0.890804
     18          6           0        4.842188    0.171031    0.000195
     19          1           0        4.734188   -0.465298    0.889495
     20          1           0        4.733801   -0.465407   -0.888978
     21          8           0        6.086434    0.841778   -0.000115
     22          6           0        7.200862   -0.034582   -0.000336
     23          1           0        7.192129   -0.680385    0.888599
     24          1           0        7.191733   -0.680443   -0.889225
     25          6           0        8.455572    0.820696   -0.000647
     26          1           0        8.463281    1.467723    0.888100
     27          1           0        8.462860    1.467694   -0.889408
     28          8           0        9.565003   -0.056416   -0.000894
     29          6           0       10.813195    0.613170   -0.001096
     30          1           0       10.917365    1.251392    0.887598
     31          1           0       10.917170    1.251238   -0.889936
     32          6           0       11.902116   -0.444968   -0.001141
     33          1           0       11.795846   -1.084573   -0.889843
     34          1           0       11.796192   -1.084310    0.887790
     35          8           0       13.146338    0.225831   -0.001478
     36          6           0       14.248913   -0.657572   -0.001519
     37          1           0       14.251970   -1.300363   -0.893632
     38          1           0       15.152090   -0.046795   -0.001790
     39          1           0       14.252290   -1.300046    0.890820
     40          6           0       -3.769290   -1.245588   -0.000202
     41          1           0       -3.872195   -1.874091    0.890847
     42          1           0       -3.871938   -1.874063   -0.891289
     43          6           0       -4.842219   -0.171006   -0.000331
     44          1           0       -4.734156    0.465372    0.888919
     45          1           0       -4.733920    0.465384   -0.889555
     46          8           0       -6.086446   -0.841789   -0.000498
     47          6           0       -7.200894    0.034544   -0.000655
     48          1           0       -7.192081    0.680413    0.888238
     49          1           0       -7.191881    0.680344   -0.889589
     50          6           0       -8.455579   -0.820774   -0.000765
     51          1           0       -8.463168   -1.467741    0.888028
     52          1           0       -8.462944   -1.467837   -0.889479
     53          8           0       -9.565036    0.056304   -0.000950
     54          6           0      -10.813207   -0.613319   -0.000927
     55          1           0      -10.917256   -1.251435    0.887867
     56          1           0      -10.917266   -1.251500   -0.889675
     57          6           0      -11.902152    0.444790   -0.000975
     58          1           0      -11.796013    1.084277   -0.889777
     59          1           0      -11.796126    1.084260    0.887854
     60          8           0      -13.146360   -0.226033   -0.001058
     61          6           0      -14.248959    0.657340   -0.001102
     62          1           0      -14.252167    1.299959   -0.893338
     63          1           0      -15.152117    0.046535   -0.001116
     64          1           0      -14.252218    1.299985    0.891115
     65         35           0       -0.528829    5.006837    0.000408
     66         35           0        0.528899   -5.006812    0.001523
 ---------------------------------------------------------------------

 The electronic state is 1-A.
 Alpha  occ. eigenvalues -- -482.84366-482.84366 -88.88688 -88.88687 -62.49638
 Alpha  occ. eigenvalues --  -62.49638 -56.31690 -56.31690 -56.31274 -56.31274
 Alpha  occ. eigenvalues --  -56.31273 -56.31273 -19.16753 -19.16753 -19.13501
 Alpha  occ. eigenvalues --  -19.13501 -19.12848 -19.12848 -19.12348 -19.12348
 Alpha  occ. eigenvalues --  -10.25053 -10.25052 -10.24644 -10.24643 -10.24020
 Alpha  occ. eigenvalues --  -10.24019 -10.23063 -10.23063 -10.22438 -10.22438
 Alpha  occ. eigenvalues --  -10.22235 -10.22235 -10.21939 -10.21939 -10.21780
 Alpha  occ. eigenvalues --  -10.21780 -10.21656 -10.21619 -10.21488 -10.21488
 Alpha  occ. eigenvalues --  -10.19096 -10.19096  -8.70601  -8.70601  -7.97246
 Alpha  occ. eigenvalues --   -7.97245  -6.53795  -6.53795  -6.52415  -6.52415
 Alpha  occ. eigenvalues --   -6.52407  -6.52407  -5.93583  -5.93582  -5.93187
 Alpha  occ. eigenvalues --   -5.93186  -5.92769  -5.92769  -2.64881  -2.64880
 Alpha  occ. eigenvalues --   -2.64481  -2.64481  -2.64472  -2.64472  -2.63378
 Alpha  occ. eigenvalues --   -2.63378  -2.63378  -2.63378  -1.08615  -1.08541
 Alpha  occ. eigenvalues --   -1.05447  -1.05445  -1.04609  -1.04609  -1.03732
 Alpha  occ. eigenvalues --   -1.03732  -0.90855  -0.89534  -0.82857  -0.81390
 Alpha  occ. eigenvalues --   -0.79866  -0.79865  -0.77588  -0.77311  -0.76407
 Alpha  occ. eigenvalues --   -0.74669  -0.73891  -0.72912  -0.71400  -0.69072
 Alpha  occ. eigenvalues --   -0.67222  -0.66703  -0.63626  -0.63317  -0.61824
 Alpha  occ. eigenvalues --   -0.61777  -0.61170  -0.61152  -0.59983  -0.57803
 Alpha  occ. eigenvalues --   -0.56596  -0.55473  -0.54939  -0.52118  -0.52092
 Alpha  occ. eigenvalues --   -0.51969  -0.51831  -0.50660  -0.50632  -0.50395
 Alpha  occ. eigenvalues --   -0.49056  -0.48755  -0.48597  -0.48540  -0.48051
 Alpha  occ. eigenvalues --   -0.47801  -0.47053  -0.45931  -0.45734  -0.45510
 Alpha  occ. eigenvalues --   -0.45379  -0.45284  -0.44842  -0.44790  -0.43588
 Alpha  occ. eigenvalues --   -0.43253  -0.43184  -0.42960  -0.41295  -0.40957
 Alpha  occ. eigenvalues --   -0.40603  -0.40189  -0.39310  -0.38839  -0.38695
 Alpha  occ. eigenvalues --   -0.38185  -0.37676  -0.36784  -0.36402  -0.36358
 Alpha  occ. eigenvalues --   -0.35688  -0.35114  -0.34903  -0.34547  -0.34409
 Alpha  occ. eigenvalues --   -0.33983  -0.33616  -0.33107  -0.33107  -0.32512
 Alpha  occ. eigenvalues --   -0.32512  -0.31836  -0.30584  -0.30459  -0.30079
 Alpha  occ. eigenvalues --   -0.27676  -0.27656  -0.26950  -0.26931  -0.26835
 Alpha  occ. eigenvalues --   -0.26258  -0.26257  -0.25123  -0.24718  -0.19018
 Alpha virt. eigenvalues --   -0.05304  -0.02146  -0.01644  -0.00631   0.01276
 Alpha virt. eigenvalues --    0.01659   0.03972   0.04019   0.04503   0.04555
 Alpha virt. eigenvalues --    0.04566   0.04715   0.04859   0.05165   0.05633

 Mulliken charges:
               1
     1  C   -0.237697
     2  C    0.247210
     3  C   -0.031994
     4  C   -0.361148
     5  S    0.379253
     6  O   -0.385479
     7  H    0.123956
     8  C   -0.237726
     9  C    0.247213
    10  C   -0.032012
    11  C   -0.361141
    12  S    0.379252
    13  O   -0.385464
    14  H    0.123953
    15  C   -0.047851
    16  H    0.120741
    17  H    0.120742
    18  C    0.015490
    19  H    0.107169
    20  H    0.107162
    21  O   -0.392176
    22  C   -0.000905
    23  H    0.100182
    24  H    0.100183
    25  C    0.003066
    26  H    0.096795
    27  H    0.096796
    28  O   -0.389880
    29  C    0.000116
    30  H    0.098056
    31  H    0.098059
    32  C   -0.007841
    33  H    0.094408
    34  H    0.094404
    35  O   -0.370469
    36  C   -0.102166
    37  H    0.089518
    38  H    0.115848
    39  H    0.089518
    40  C   -0.047852
    41  H    0.120737
    42  H    0.120743
    43  C    0.015485
    44  H    0.107165
    45  H    0.107163
    46  O   -0.392174
    47  C   -0.000906
    48  H    0.100180
    49  H    0.100185
    50  C    0.003066
    51  H    0.096794
    52  H    0.096797
    53  O   -0.389879
    54  C    0.000117
    55  H    0.098056
    56  H    0.098058
    57  C   -0.007840
    58  H    0.094407
    59  H    0.094404
    60  O   -0.370470
    61  C   -0.102166
    62  H    0.089519
    63  H    0.115848
    64  H    0.089517
    65  Br   0.028958
    66  Br   0.028948
 Sum of Mulliken charges =  -0.00000

 Dipole moment (field-independent basis, Debye):
    X=              0.0000    Y=              0.0003    Z=             -0.0006  Tot=              0.0007
 Quadrupole moment (field-independent basis, Debye-Ang):
   XX=           -193.7205   YY=           -245.5282   ZZ=           -245.2363
   XY=            -14.9054   XZ=              0.0005   YZ=              0.0017

 Normal termination of Gaussian 16 at Thu Jan 16 14:27:53 2020.
