 Gaussian 16, Revision A.03,
 Gaussian 16:  ES64L-G16RevA.03 25-Dec-2016

 ------------------------------
 #p pop=MKUFF b3lyp/6-311g(d,p)
 ------------------------------

 ------------------------
 3G_1m_0sc_Br_opt_pop.gjf
 ------------------------
 Symbolic Z-matrix:
 Charge =  0 Multiplicity = 1

                         Standard orientation:
 ---------------------------------------------------------------------
 Center     Atomic      Atomic             Coordinates (Angstroms)
 Number     Number       Type             X           Y           Z
 ---------------------------------------------------------------------
      1          6           0        0.138010    0.705200   -0.000991
      2          6           0        1.380700    1.318947   -0.000991
      3          6           0        1.330985    2.741699   -0.000991
      4          6           0        0.050422    3.210762   -0.000991
      5         16           0       -1.116690    1.937414   -0.000991
      6          8           0        2.509864    0.554059    0.000009
      7          1           0        2.200523    3.382423    0.000009
      8          6           0       -0.158329   -0.708428   -0.000991
      9          6           0       -1.401019   -1.322175   -0.000991
     10          6           0       -1.352304   -2.744932   -0.000991
     11          6           0       -0.070741   -3.213990   -0.000991
     12         16           0        1.096377   -1.941642    0.000009
     13          8           0       -2.530183   -0.557287   -0.000991
     14          1           0       -2.220837   -3.386651   -0.000991
     15          6           0        3.771294    1.215909    0.000009
     16          1           0        3.878882    1.845501    0.890009
     17          1           0        3.878882    1.845501   -0.890991
     18          6           0        4.839156    0.137683    0.000009
     19          1           0        4.727607   -0.498931    0.889009
     20          1           0        4.727607   -0.498931   -0.888991
     21          8           0        6.089586    0.799474    0.000009
     22          6           0        7.196396   -0.084538    0.000009
     23          1           0        7.182899   -0.730620    0.889009
     24          1           0        7.182899   -0.730620   -0.888991
     25          6           0        8.457833    0.760315    0.000009
     26          1           0        8.469325    1.407387    0.889009
     27          1           0        8.470325    1.407392   -0.887991
     28          8           0        9.561643   -0.123713    0.000009
     29          6           0       10.814079    0.537088    0.001009
     30          1           0       10.921623    1.174681    0.889009
     31          1           0       10.922623    1.174686   -0.887991
     32          6           0       11.895870   -0.528061    0.001009
     33          1           0       11.785331   -1.166670   -0.887991
     34          1           0       11.785331   -1.166670    0.890009
     35          8           0       13.144300    0.133718    0.001009
     36          6           0       14.240148   -0.757353    0.001009
     37          1           0       14.239635   -1.400365   -0.890991
     38          1           0       15.147887   -0.153422    0.001009
     39          1           0       14.239635   -1.400365    0.893009
     40          6           0       -3.791608   -1.220137   -0.000991
     41          1           0       -3.899201   -1.848729    0.890009
     42          1           0       -3.899201   -1.848729   -0.890991
     43          6           0       -4.859475   -0.140911    0.000009
     44          1           0       -4.747920    0.494703    0.889009
     45          1           0       -4.747920    0.494703   -0.889991
     46          8           0       -6.109905   -0.802702    0.000009
     47          6           0       -7.216715    0.081310    0.000009
     48          1           0       -7.203224    0.728392    0.889009
     49          1           0       -7.203218    0.727393   -0.888991
     50          6           0       -8.478152   -0.763543    0.000009
     51          1           0       -8.490644   -1.410620    0.889009
     52          1           0       -8.490644   -1.410620   -0.887991
     53          8           0       -9.581968    0.121485    0.000009
     54          6           0      -10.834403   -0.539316    0.001009
     55          1           0      -10.941947   -1.176909    0.890009
     56          1           0      -10.942947   -1.176914   -0.887991
     57          6           0      -11.915195    0.525839    0.001009
     58          1           0      -11.805656    1.164442   -0.887991
     59          1           0      -11.804656    1.164448    0.890009
     60          8           0      -13.164624   -0.135946    0.001009
     61          6           0      -14.260472    0.755125    0.001009
     62          1           0      -14.259959    1.398137   -0.890991
     63          1           0      -15.168211    0.151194    0.002009
     64          1           0      -14.258959    1.398143    0.893009
     65         35           0       -0.195047    5.125088    0.000085
     66         35           0        0.270491   -5.113584    0.000249
 ---------------------------------------------------------------------

 SCF Done:  E(RB3LYP) =  -7404.34986800     A.U. after   14 cycles

 The electronic state is 1-A.
 Alpha  occ. eigenvalues -- -482.84412-482.84362 -88.89186 -88.89096 -62.49663
 Alpha  occ. eigenvalues --  -62.49615 -56.31729 -56.31682 -56.31296 -56.31295
 Alpha  occ. eigenvalues --  -56.31247 -56.31245 -19.16892 -19.16869 -19.13532
 Alpha  occ. eigenvalues --  -19.13520 -19.12855 -19.12846 -19.12355 -19.12348
 Alpha  occ. eigenvalues --  -10.25296 -10.25256 -10.24781 -10.24742 -10.24057
 Alpha  occ. eigenvalues --  -10.24041 -10.23112 -10.23094 -10.22460 -10.22442
 Alpha  occ. eigenvalues --  -10.22245 -10.22230 -10.22012 -10.21976 -10.21944
 Alpha  occ. eigenvalues --  -10.21933 -10.21782 -10.21779 -10.21486 -10.21484
 Alpha  occ. eigenvalues --  -10.19062 -10.18961  -8.70598  -8.70551  -7.97727
 Alpha  occ. eigenvalues --   -7.97646  -6.53814  -6.53772  -6.52398  -6.52389
 Alpha  occ. eigenvalues --   -6.52348  -6.52341  -5.94071  -5.93987  -5.93664
 Alpha  occ. eigenvalues --   -5.93583  -5.93248  -5.93169  -2.64885  -2.64841
 Alpha  occ. eigenvalues --   -2.64484  -2.64474  -2.64439  -2.64430  -2.63352
 Alpha  occ. eigenvalues --   -2.63351  -2.63302  -2.63302  -1.08723  -1.08648
 Alpha  occ. eigenvalues --   -1.05467  -1.05459  -1.04625  -1.04618  -1.03755
 Alpha  occ. eigenvalues --   -1.03734  -0.91058  -0.89645  -0.82515  -0.81072
 Alpha  occ. eigenvalues --   -0.79906  -0.79851  -0.77682  -0.77393  -0.76197
 Alpha  occ. eigenvalues --   -0.74760  -0.74092  -0.72871  -0.71612  -0.69207
 Alpha  occ. eigenvalues --   -0.67243  -0.66777  -0.63675  -0.63440  -0.61833
 Alpha  occ. eigenvalues --   -0.61784  -0.61173  -0.61155  -0.60104  -0.57887
 Alpha  occ. eigenvalues --   -0.56730  -0.55597  -0.55005  -0.52151  -0.52117
 Alpha  occ. eigenvalues --   -0.51996  -0.51847  -0.50682  -0.50652  -0.50553
 Alpha  occ. eigenvalues --   -0.49029  -0.48769  -0.48620  -0.48561  -0.48076
 Alpha  occ. eigenvalues --   -0.47821  -0.47004  -0.45851  -0.45778  -0.45544
 Alpha  occ. eigenvalues --   -0.45386  -0.45303  -0.44770  -0.44640  -0.43639
 Alpha  occ. eigenvalues --   -0.43166  -0.43041  -0.42982  -0.41353  -0.41108
 Alpha  occ. eigenvalues --   -0.40613  -0.40210  -0.39526  -0.38851  -0.38688
 Alpha  occ. eigenvalues --   -0.38132  -0.37712  -0.36844  -0.36393  -0.36349
 Alpha  occ. eigenvalues --   -0.35717  -0.34957  -0.34839  -0.34616  -0.34533
 Alpha  occ. eigenvalues --   -0.34007  -0.33687  -0.33113  -0.33099  -0.32518
 Alpha  occ. eigenvalues --   -0.32513  -0.31972  -0.30724  -0.30364  -0.30044
 Alpha  occ. eigenvalues --   -0.27690  -0.27668  -0.26969  -0.26936  -0.26914
 Alpha  occ. eigenvalues --   -0.26260  -0.26260  -0.25166  -0.24959  -0.19345
 Alpha virt. eigenvalues --   -0.05432  -0.04027  -0.02957  -0.00666   0.01286
 Alpha virt. eigenvalues --    0.01403   0.03953   0.04003   0.04476   0.04551
 Alpha virt. eigenvalues --    0.04561   0.04709   0.04855   0.05069   0.05657

 Mulliken charges:
               1
     1  C   -0.234526
     2  C    0.242520
     3  C   -0.045448
     4  C   -0.338186
     5  S    0.379303
     6  O   -0.384514
     7  H    0.129715
     8  C   -0.232924
     9  C    0.243598
    10  C   -0.040549
    11  C   -0.345657
    12  S    0.381081
    13  O   -0.384629
    14  H    0.127577
    15  C   -0.048613
    16  H    0.120859
    17  H    0.120731
    18  C    0.015305
    19  H    0.106906
    20  H    0.106933
    21  O   -0.391916
    22  C   -0.000819
    23  H    0.099886
    24  H    0.099873
    25  C    0.003029
    26  H    0.096627
    27  H    0.096820
    28  O   -0.389740
    29  C    0.000155
    30  H    0.098088
    31  H    0.097878
    32  C   -0.007887
    33  H    0.094364
    34  H    0.094319
    35  O   -0.369941
    36  C   -0.102254
    37  H    0.089431
    38  H    0.115799
    39  H    0.089431
    40  C   -0.048701
    41  H    0.120882
    42  H    0.121094
    43  C    0.015310
    44  H    0.107140
    45  H    0.106898
    46  O   -0.391953
    47  C   -0.000894
    48  H    0.099823
    49  H    0.099932
    50  C    0.003095
    51  H    0.096762
    52  H    0.096946
    53  O   -0.389964
    54  C    0.000237
    55  H    0.097993
    56  H    0.097947
    57  C   -0.007763
    58  H    0.094481
    59  H    0.094424
    60  O   -0.370441
    61  C   -0.102142
    62  H    0.089406
    63  H    0.115811
    64  H    0.089372
    65  Br   0.014419
    66  Br   0.017260
 Sum of Mulliken charges =  -0.00000

 Dipole moment (field-independent basis, Debye):
    X=             -0.0133    Y=             -0.0377    Z=              0.0034  Tot=              0.0401
 Quadrupole moment (field-independent basis, Debye-Ang):
   XX=           -194.7011   YY=           -246.6318   ZZ=           -245.3357
   XY=            -14.9308   XZ=              0.0100   YZ=              0.0063

 ESP charges:
               1
     1  C   -0.159009
     2  C    0.488389
     3  C   -0.360632
     4  C   -0.072202
     5  S    0.056981
     6  O   -0.424079
     7  H    0.172761
     8  C   -0.175866
     9  C    0.509302
    10  C   -0.389494
    11  C   -0.048303
    12  S    0.049052
    13  O   -0.436509
    14  H    0.178681
    15  C    0.218668
    16  H    0.027713
    17  H    0.027488
    18  C    0.361891
    19  H   -0.019581
    20  H   -0.019678
    21  O   -0.592025
    22  C    0.334615
    23  H   -0.024682
    24  H   -0.024641
    25  C    0.383968
    26  H   -0.031560
    27  H   -0.031497
    28  O   -0.585022
    29  C    0.301127
    30  H   -0.025146
    31  H   -0.025210
    32  C    0.317454
    33  H   -0.013586
    34  H   -0.013691
    35  O   -0.420344
    36  C   -0.029711
    37  H    0.047644
    38  H    0.095348
    39  H    0.047649
    40  C    0.218769
    41  H    0.030003
    42  H    0.030294
    43  C    0.368817
    44  H   -0.016191
    45  H   -0.016438
    46  O   -0.593170
    47  C    0.273985
    48  H   -0.014784
    49  H   -0.014756
    50  C    0.440630
    51  H   -0.040749
    52  H   -0.040603
    53  O   -0.571597
    54  C    0.251098
    55  H   -0.014859
    56  H   -0.014958
    57  C    0.310913
    58  H   -0.008300
    59  H   -0.008408
    60  O   -0.416069
    61  C   -0.019285
    62  H    0.043311
    63  H    0.093778
    64  H    0.043186
    65  Br  -0.004661
    66  Br  -0.006222
 Sum of ESP charges =  -0.00000

 Normal termination of Gaussian 16 at Fri Jan 17 13:04:49 2020.
