 Gaussian 16, Revision A.03,
 Gaussian 16:  ES64L-G16RevA.03 25-Dec-2016

 --------------------
 #p opt b3lyp/lanl2dz
 --------------------

 ------------------------
 3G_1m_0sc_Sn_opt_pop.gjf
 ------------------------
 Symbolic Z-matrix:
 Charge =  0 Multiplicity = 1

 SCF Done:  E(RB3LYP) =  -1725.43241811     A.U. after   15 cycles
 SCF Done:  E(RB3LYP) =  -1725.46609730     A.U. after   13 cycles
 SCF Done:  E(RB3LYP) =  -1725.47963170     A.U. after   13 cycles
 SCF Done:  E(RB3LYP) =  -1725.48142821     A.U. after   13 cycles
 SCF Done:  E(RB3LYP) =  -1725.48210262     A.U. after   12 cycles
 SCF Done:  E(RB3LYP) =  -1725.48228068     A.U. after   12 cycles
 SCF Done:  E(RB3LYP) =  -1725.48242555     A.U. after   12 cycles
 SCF Done:  E(RB3LYP) =  -1725.48248242     A.U. after   12 cycles
 SCF Done:  E(RB3LYP) =  -1725.48251262     A.U. after   10 cycles
 SCF Done:  E(RB3LYP) =  -1725.48254308     A.U. after   10 cycles
 SCF Done:  E(RB3LYP) =  -1725.48295336     A.U. after   12 cycles
 SCF Done:  E(RB3LYP) =  -1725.48298456     A.U. after   14 cycles
 SCF Done:  E(RB3LYP) =  -1725.48298910     A.U. after   11 cycles
 SCF Done:  E(RB3LYP) =  -1725.48299128     A.U. after   11 cycles
 SCF Done:  E(RB3LYP) =  -1725.48299150     A.U. after    9 cycles
 SCF Done:  E(RB3LYP) =  -1725.48299234     A.U. after   10 cycles
 SCF Done:  E(RB3LYP) =  -1725.48299285     A.U. after    9 cycles
 SCF Done:  E(RB3LYP) =  -1725.48299324     A.U. after    9 cycles
 SCF Done:  E(RB3LYP) =  -1725.48299331     A.U. after    6 cycles
 SCF Done:  E(RB3LYP) =  -1725.48299332     A.U. after    6 cycles
 Optimization completed.
    -- Stationary point found.

                         Standard orientation:
 ---------------------------------------------------------------------
 Center     Atomic      Atomic             Coordinates (Angstroms)
 Number     Number       Type             X           Y           Z
 ---------------------------------------------------------------------
      1          6           0       -0.130839   -0.708113    0.000189
      2          6           0       -1.360617   -1.363429    0.000154
      3          6           0       -1.288740   -2.800530    0.000196
      4          6           0       -0.003810   -3.317334    0.000182
      5         16           0        1.199230   -1.959480    0.000198
      6          8           0       -2.538961   -0.615320    0.000067
      7          1           0       -2.171752   -3.430429    0.000203
      8          6           0        0.130861    0.708078    0.000176
      9          6           0        1.360633    1.363405    0.000148
     10          6           0        1.288747    2.800506    0.000133
     11          6           0        0.003811    3.317298    0.000132
     12         16           0       -1.199220    1.959439    0.000182
     13          8           0        2.538983    0.615302    0.000124
     14          1           0        2.171755    3.430413    0.000139
     15          6           0       -3.813444   -1.330224    0.000140
     16          1           0       -3.900798   -1.959426    0.896349
     17          1           0       -3.900818   -1.959596   -0.895948
     18          6           0       -4.897501   -0.258373    0.000040
     19          1           0       -4.806172    0.377284    0.894218
     20          1           0       -4.806124    0.377153   -0.894226
     21          8           0       -6.165460   -0.975126    0.000062
     22          6           0       -7.332513   -0.100237   -0.000038
     23          1           0       -7.335500    0.542390    0.894164
     24          1           0       -7.335448    0.542255   -0.894337
     25          6           0       -8.556909   -1.008704   -0.000005
     26          1           0       -8.552511   -1.651957    0.894132
     27          1           0       -8.552450   -1.652101   -0.894039
     28          8           0       -9.722397   -0.134285   -0.000113
     29          6           0      -10.990651   -0.854560   -0.000121
     30          1           0      -11.075222   -1.492094    0.893890
     31          1           0      -11.075159   -1.492187   -0.894072
     32          6           0      -12.093875    0.197722   -0.000215
     33          1           0      -12.010041    0.835774   -0.894748
     34          1           0      -12.010123    0.835853    0.894269
     35          8           0      -13.355925   -0.530183   -0.000241
     36          6           0      -14.522559    0.335551   -0.000331
     37          1           0      -14.546461    0.976334   -0.896854
     38          1           0      -15.396644   -0.321075   -0.000342
     39          1           0      -14.546542    0.976411    0.896135
     40          6           0        3.813458    1.330220    0.000103
     41          1           0        3.900864    1.959445    0.896291
     42          1           0        3.900767    1.959570   -0.896005
     43          6           0        4.897526    0.258379   -0.000034
     44          1           0        4.806208   -0.377297    0.894131
     45          1           0        4.806149   -0.377129   -0.894313
     46          8           0        6.165478    0.975143   -0.000009
     47          6           0        7.332539    0.100264   -0.000131
     48          1           0        7.335530   -0.542388    0.894053
     49          1           0        7.335479   -0.542204   -0.894448
     50          6           0        8.556927    1.008740   -0.000069
     51          1           0        8.552508    1.651983    0.894076
     52          1           0        8.552479    1.652149   -0.894095
     53          8           0        9.722422    0.134331   -0.000172
     54          6           0       10.990671    0.854617   -0.000107
     55          1           0       11.075215    1.492101    0.893942
     56          1           0       11.075194    1.492296   -0.894020
     57          6           0       12.093903   -0.197656   -0.000233
     58          1           0       12.010118   -0.835641   -0.894818
     59          1           0       12.010114   -0.835854    0.894200
     60          8           0       13.355947    0.530260   -0.000145
     61          6           0       14.522588   -0.335464   -0.000242
     62          1           0       14.546539   -0.976182   -0.896811
     63          1           0       15.396668    0.321170   -0.000164
     64          1           0       14.546535   -0.976389    0.896178
     65         50           0        0.566583   -5.369320    0.000023
     66          6           0       -1.257253   -6.493488    0.000404
     67          1           0       -1.856523   -6.265217   -0.890020
     68          1           0       -1.042630   -7.569855    0.000276
     69          1           0       -1.856102   -6.265350    0.891147
     70          6           0        1.726893   -5.782310    1.752578
     71          1           0        2.637443   -5.170038    1.764871
     72          1           0        1.149957   -5.555132    2.657529
     73          1           0        2.021427   -6.839380    1.783756
     74          6           0        1.725966   -5.782261   -1.753162
     75          1           0        2.018900   -6.839745   -1.785452
     76          1           0        1.149143   -5.553333   -2.657743
     77          1           0        2.637436   -5.171358   -1.765074
     78         50           0       -0.566603    5.369271    0.000021
     79          6           0       -1.725900    5.782353   -1.753188
     80          1           0       -2.636952    5.170835   -1.765600
     81          1           0       -2.019544    6.839655   -1.784969
     82          1           0       -1.148752    5.554291   -2.657781
     83          6           0       -1.727017    5.782184    1.752524
     84          1           0       -2.020678    6.839481    1.784242
     85          1           0       -2.638084    5.170670    1.764257
     86          1           0       -1.150476    5.554004    2.657475
     87          6           0        1.257157    6.493559    0.000607
     88          1           0        1.855923    6.265498    0.891423
     89          1           0        1.856571    6.265396   -0.889746
     90          1           0        1.042383    7.569900    0.000462
 ---------------------------------------------------------------------

 The electronic state is 1-A.
 Alpha  occ. eigenvalues --  -19.16501 -19.16501 -19.14348 -19.14348 -19.13984
 Alpha  occ. eigenvalues --  -19.13984 -19.13771 -19.13771 -10.25216 -10.25215
 Alpha  occ. eigenvalues --  -10.24855 -10.24855 -10.24116 -10.24116 -10.23852
 Alpha  occ. eigenvalues --  -10.23852 -10.23732 -10.23732 -10.23537 -10.23537
 Alpha  occ. eigenvalues --  -10.23495 -10.23495 -10.23144 -10.23144 -10.22137
 Alpha  occ. eigenvalues --  -10.22100 -10.19673 -10.19672 -10.19610 -10.19610
 Alpha  occ. eigenvalues --  -10.16321 -10.16321 -10.15948 -10.15947 -10.15947
 Alpha  occ. eigenvalues --  -10.15947  -1.05687  -1.05625  -1.03082  -1.03080
 Alpha  occ. eigenvalues --   -1.02359  -1.02358  -1.01575  -1.01575  -0.87497
 Alpha  occ. eigenvalues --   -0.85589  -0.79047  -0.78963  -0.76713  -0.76614
 Alpha  occ. eigenvalues --   -0.75475  -0.73082  -0.72681  -0.71273  -0.70237
 Alpha  occ. eigenvalues --   -0.69696  -0.69340  -0.68279  -0.67559  -0.67554
 Alpha  occ. eigenvalues --   -0.67275  -0.67275  -0.66787  -0.66464  -0.62518
 Alpha  occ. eigenvalues --   -0.62284  -0.61036  -0.61031  -0.60652  -0.60640
 Alpha  occ. eigenvalues --   -0.58513  -0.56058  -0.54188  -0.53729  -0.52828
 Alpha  occ. eigenvalues --   -0.50718  -0.50708  -0.50203  -0.50128  -0.49511
 Alpha  occ. eigenvalues --   -0.49495  -0.47636  -0.47605  -0.47579  -0.47222
 Alpha  occ. eigenvalues --   -0.47096  -0.46242  -0.46191  -0.45340  -0.45095
 Alpha  occ. eigenvalues --   -0.44233  -0.44131  -0.44079  -0.43921  -0.43779
 Alpha  occ. eigenvalues --   -0.43676  -0.42328  -0.42327  -0.42315  -0.41875
 Alpha  occ. eigenvalues --   -0.40754  -0.40537  -0.40204  -0.40188  -0.40036
 Alpha  occ. eigenvalues --   -0.39843  -0.39739  -0.39735  -0.39722  -0.39291
 Alpha  occ. eigenvalues --   -0.39224  -0.39155  -0.39105  -0.38905  -0.38740
 Alpha  occ. eigenvalues --   -0.38740  -0.38380  -0.37913  -0.36664  -0.36253
 Alpha  occ. eigenvalues --   -0.36215  -0.36152  -0.35779  -0.35133  -0.33881
 Alpha  occ. eigenvalues --   -0.33167  -0.32148  -0.32099  -0.31796  -0.31575
 Alpha  occ. eigenvalues --   -0.31566  -0.31495  -0.31146  -0.31081  -0.31081
 Alpha  occ. eigenvalues --   -0.29092  -0.28922  -0.28545  -0.28258  -0.28195
 Alpha  occ. eigenvalues --   -0.27960  -0.26351  -0.26345  -0.26199  -0.25812
 Alpha  occ. eigenvalues --   -0.25809  -0.25225  -0.25224  -0.23204  -0.22980
 Alpha  occ. eigenvalues --   -0.17863
 Alpha virt. eigenvalues --   -0.04442   0.00779   0.01703   0.02537   0.04742
 Alpha virt. eigenvalues --    0.05069   0.05111   0.05285   0.05727   0.05745
 Alpha virt. eigenvalues --    0.05993   0.07228   0.07259   0.07752   0.07759

 Mulliken charges:
               1
     1  C   -0.241310
     2  C    0.348818
     3  C   -0.206588
     4  C   -0.572469
     5  S    0.234519
     6  O   -0.331463
     7  H    0.246557
     8  C   -0.241309
     9  C    0.348816
    10  C   -0.206583
    11  C   -0.572477
    12  S    0.234522
    13  O   -0.331462
    14  H    0.246557
    15  C   -0.230062
    16  H    0.204351
    17  H    0.204348
    18  C   -0.223171
    19  H    0.194719
    20  H    0.194718
    21  O   -0.335979
    22  C   -0.209282
    23  H    0.190487
    24  H    0.190487
    25  C   -0.209043
    26  H    0.189149
    27  H    0.189148
    28  O   -0.339198
    29  C   -0.200285
    30  H    0.190559
    31  H    0.190560
    32  C   -0.223617
    33  H    0.188359
    34  H    0.188359
    35  O   -0.325149
    36  C   -0.440806
    37  H    0.191160
    38  H    0.223302
    39  H    0.191160
    40  C   -0.230062
    41  H    0.204352
    42  H    0.204347
    43  C   -0.223172
    44  H    0.194719
    45  H    0.194718
    46  O   -0.335979
    47  C   -0.209282
    48  H    0.190487
    49  H    0.190487
    50  C   -0.209043
    51  H    0.189148
    52  H    0.189149
    53  O   -0.339198
    54  C   -0.200285
    55  H    0.190560
    56  H    0.190559
    57  C   -0.223617
    58  H    0.188359
    59  H    0.188359
    60  O   -0.325149
    61  C   -0.440806
    62  H    0.191160
    63  H    0.223302
    64  H    0.191160
    65  Sn   1.198018
    66  C   -0.986179
    67  H    0.230850
    68  H    0.228933
    69  H    0.230857
    70  C   -0.967100
    71  H    0.231234
    72  H    0.231549
    73  H    0.221899
    74  C   -0.967078
    75  H    0.221899
    76  H    0.231562
    77  H    0.231217
    78  Sn   1.198017
    79  C   -0.967076
    80  H    0.231223
    81  H    0.221897
    82  H    0.231551
    83  C   -0.967097
    84  H    0.221899
    85  H    0.231223
    86  H    0.231558
    87  C   -0.986176
    88  H    0.230859
    89  H    0.230849
    90  H    0.228930
 Sum of Mulliken charges =  -0.00000

 Dipole moment (field-independent basis, Debye):
    X=              0.0000    Y=             -0.0002    Z=             -0.0004  Tot=              0.0004
 Quadrupole moment (field-independent basis, Debye-Ang):
   XX=           -228.9860   YY=           -252.4211   ZZ=           -279.3165
   XY=            -28.0369   XZ=             -0.0014   YZ=              0.0001

 Normal termination of Gaussian 16 at Thu Jan 16 15:29:03 2020.
