 Gaussian 16, Revision A.03,
 Gaussian 16:  ES64L-G16RevA.03 25-Dec-2016

 ------------------------------
 #p opt pop=MKUFF b3lyp/lanl2dz
 ------------------------------

 ----------------------
 OBT_1m_14sc_Sn_opt.gjf
 ----------------------
 Symbolic Z-matrix:
 Charge =  0 Multiplicity = 1

 SCF Done:  E(RB3LYP) =  -1509.93303861     A.U. after   15 cycles
 SCF Done:  E(RB3LYP) =  -1510.02691059     A.U. after   15 cycles
 SCF Done:  E(RB3LYP) =  -1510.06119342     A.U. after   16 cycles
 SCF Done:  E(RB3LYP) =  -1510.09399699     A.U. after   14 cycles
 SCF Done:  E(RB3LYP) =  -1510.08760885     A.U. after   16 cycles
 SCF Done:  E(RB3LYP) =  -1510.13173245     A.U. after   14 cycles
 SCF Done:  E(RB3LYP) =  -1510.13792499     A.U. after   13 cycles
 SCF Done:  E(RB3LYP) =  -1510.14208878     A.U. after   13 cycles
 SCF Done:  E(RB3LYP) =  -1510.14466641     A.U. after   15 cycles
 SCF Done:  E(RB3LYP) =  -1510.14511408     A.U. after   13 cycles
 SCF Done:  E(RB3LYP) =  -1510.14722149     A.U. after   11 cycles
 SCF Done:  E(RB3LYP) =  -1510.14722460     A.U. after   10 cycles
 SCF Done:  E(RB3LYP) =  -1510.14722905     A.U. after   11 cycles
 SCF Done:  E(RB3LYP) =  -1510.14723042     A.U. after    9 cycles
 SCF Done:  E(RB3LYP) =  -1510.14723082     A.U. after    8 cycles
 SCF Done:  E(RB3LYP) =  -1510.14723094     A.U. after    9 cycles
 SCF Done:  E(RB3LYP) =  -1510.14723095     A.U. after    7 cycles
 SCF Done:  E(RB3LYP) =  -1510.14723098     A.U. after    6 cycles
 SCF Done:  E(RB3LYP) =  -1510.14723102     A.U. after    6 cycles
 SCF Done:  E(RB3LYP) =  -1510.14723104     A.U. after    6 cycles
 Optimization completed on the basis of negligible forces.
    -- Stationary point found.

                         Standard orientation:
 ---------------------------------------------------------------------
 Center     Atomic      Atomic             Coordinates (Angstroms)
 Number     Number       Type             X           Y           Z
 ---------------------------------------------------------------------
      1          6           0       -0.102553    0.160662    0.130042
      2          6           0        1.016153   -0.671595    0.124399
      3          6           0        0.725675   -2.081611    0.115949
      4          6           0       -0.622653   -2.398622    0.114764
      5         16           0       -1.606801   -0.874850    0.126463
      6          8           0        2.292479   -0.109612    0.130553
      7          1           0        1.502724   -2.838273    0.111389
      8          6           0       -0.149340    1.599842    0.137923
      9          6           0       -1.268262    2.432328    0.142024
     10          6           0       -0.976966    3.842168    0.151815
     11          6           0        0.371785    4.157632    0.154895
     12         16           0        1.355587    2.634217    0.145386
     13          8           0       -2.544978    1.871898    0.137108
     14          1           0       -1.753335    4.599441    0.156670
     15          6           0        3.452363   -1.007371    0.101185
     16          1           0        3.434397   -1.657233    0.990700
     17          1           0        3.398086   -1.634834   -0.799839
     18          6           0        4.701321   -0.123627    0.102502
     19          1           0        4.704952    0.487157   -0.810846
     20          1           0        4.620387    0.570511    0.949595
     21          6           0        6.019118   -0.927179    0.209542
     22          1           0        6.842650   -0.210435    0.329588
     23          1           0        6.005305   -1.539003    1.126669
     24          6           0        6.311877   -1.840449   -1.005068
     25          1           0        5.502350   -2.578247   -1.113072
     26          1           0        6.301880   -1.230698   -1.923240
     27          6           0        7.657359   -2.599343   -0.910876
     28          1           0        7.669381   -3.192079    0.016418
     29          1           0        7.716509   -3.320682   -1.741657
     30          6           0        8.905448   -1.686565   -0.968420
     31          1           0        8.806782   -1.015756   -1.837154
     32          1           0        8.940984   -1.040609   -0.078120
     33          6           0       10.242607   -2.456849   -1.079772
     34          1           0       11.058120   -1.733197   -1.238103
     35          1           0       10.218516   -3.097851   -1.976264
     36          6           0       10.585602   -3.322199    0.154212
     37          1           0        9.823064   -4.103950    0.288952
     38          1           0       10.550501   -2.692936    1.058804
     39          6           0       11.974553   -3.990290    0.054039
     40          1           0       12.013709   -4.607829   -0.857026
     41          1           0       12.742744   -3.210612   -0.067298
     42          6           0       12.315316   -4.861776    1.281130
     43          1           0       11.580842   -5.669552    1.406295
     44          1           0       12.311752   -4.262539    2.202248
     45          1           0       13.307546   -5.322160    1.183607
     46          6           0       -3.704271    2.773048    0.166353
     47          1           0       -3.656419    3.387983    1.077938
     48          1           0       -3.671735    3.434278   -0.714109
     49          6           0       -4.965084    1.908355    0.154742
     50          1           0       -4.920472    1.215422    1.007108
     51          1           0       -5.825770    2.572953    0.321423
     52          6           0       -5.148319    1.109059   -1.154481
     53          1           0       -4.226268    0.545392   -1.345394
     54          1           0       -5.273385    1.811886   -1.994961
     55          6           0       -6.346418    0.132291   -1.122441
     56          1           0       -6.336367   -0.469732   -2.045056
     57          1           0       -6.206445   -0.573175   -0.289625
     58          6           0       -7.726269    0.821794   -1.002865
     59          1           0       -7.805774    1.337478   -0.033286
     60          1           0       -7.794189    1.602273   -1.778190
     61          6           0       -8.927260   -0.141660   -1.155082
     62          1           0       -9.857183    0.448432   -1.187365
     63          1           0       -8.855031   -0.660050   -2.125189
     64          6           0       -9.049150   -1.190427   -0.026253
     65          1           0       -8.159956   -1.838310   -0.019758
     66          1           0       -9.064471   -0.672510    0.946949
     67          6           0      -10.310843   -2.071473   -0.153841
     68          1           0      -10.301538   -2.581637   -1.130894
     69          1           0      -11.206248   -1.428672   -0.149113
     70          6           0      -10.436639   -3.125544    0.967965
     71          1           0       -9.542098   -3.767790    0.962807
     72          1           0      -10.446013   -2.615564    1.943941
     73          6           0      -11.699576   -4.002289    0.833682
     74          1           0      -11.699846   -4.547781   -0.120265
     75          1           0      -11.763549   -4.741315    1.643498
     76          1           0      -12.610124   -3.387946    0.866385
     77         50           0       -1.497234   -4.338488    0.106200
     78          6           0       -2.756608   -4.543510   -1.614607
     79          1           0       -2.178125   -4.390642   -2.534104
     80          1           0       -3.208586   -5.543348   -1.649576
     81          1           0       -3.563861   -3.800525   -1.591310
     82          6           0       -2.655295   -4.608573    1.888294
     83          1           0       -2.024080   -4.491014    2.777808
     84          1           0       -3.460306   -3.864675    1.939949
     85          1           0       -3.107142   -5.608831    1.911426
     86          6           0        0.132774   -5.728305    0.034693
     87          1           0       -0.243970   -6.759162    0.025358
     88          1           0        0.734337   -5.576402   -0.870424
     89          1           0        0.783989   -5.611212    0.910198
     90         50           0        1.248574    6.096525    0.168505
     91          6           0        2.471836    6.312381    1.913945
     92          1           0        3.276540    5.566333    1.913677
     93          1           0        2.926555    7.310935    1.950157
     94          1           0        1.873528    6.169074    2.822233
     95          6           0        2.444959    6.350715   -1.590434
     96          1           0        2.898500    7.350233   -1.612178
     97          1           0        3.249954    5.605508   -1.618275
     98          1           0        1.832939    6.226328   -2.492352
     99          6           0       -0.379890    7.489706    0.195725
    100          1           0       -1.013625    7.366016   -0.691600
    101          1           0       -0.999858    7.346827    1.089847
    102          1           0       -0.001444    8.519952    0.203806
 ---------------------------------------------------------------------

 The electronic state is 1-A.
 Alpha  occ. eigenvalues --  -19.15653 -19.15614 -10.24666 -10.24655 -10.24244
 Alpha  occ. eigenvalues --  -10.24143 -10.21666 -10.21610 -10.19322 -10.19256
 Alpha  occ. eigenvalues --  -10.19256 -10.19191 -10.18215 -10.18165 -10.18156
 Alpha  occ. eigenvalues --  -10.17949 -10.17661 -10.17636 -10.17532 -10.17475
 Alpha  occ. eigenvalues --  -10.17430 -10.17325 -10.17196 -10.17176 -10.17115
 Alpha  occ. eigenvalues --  -10.17062 -10.17044 -10.16984 -10.16891 -10.16705
 Alpha  occ. eigenvalues --  -10.16233 -10.16181 -10.15791 -10.15777 -10.15730
 Alpha  occ. eigenvalues --  -10.15729  -1.04720  -1.04644  -0.87009  -0.85127
 Alpha  occ. eigenvalues --   -0.81029  -0.80483  -0.79393  -0.79050  -0.76886
 Alpha  occ. eigenvalues --   -0.76704  -0.75370  -0.73731  -0.73243  -0.71396
 Alpha  occ. eigenvalues --   -0.70792  -0.70008  -0.69263  -0.69167  -0.68451
 Alpha  occ. eigenvalues --   -0.67432  -0.67383  -0.67259  -0.67112  -0.67057
 Alpha  occ. eigenvalues --   -0.65251  -0.63952  -0.61343  -0.61279  -0.58748
 Alpha  occ. eigenvalues --   -0.58352  -0.57956  -0.57560  -0.57080  -0.55752
 Alpha  occ. eigenvalues --   -0.55396  -0.54965  -0.53319  -0.52821  -0.52216
 Alpha  occ. eigenvalues --   -0.48083  -0.47206  -0.47067  -0.46903  -0.46655
 Alpha  occ. eigenvalues --   -0.45894  -0.45487  -0.44927  -0.44590  -0.44126
 Alpha  occ. eigenvalues --   -0.43977  -0.43039  -0.42757  -0.42524  -0.42004
 Alpha  occ. eigenvalues --   -0.41839  -0.41421  -0.41023  -0.40769  -0.40565
 Alpha  occ. eigenvalues --   -0.40270  -0.40133  -0.40064  -0.39960  -0.39679
 Alpha  occ. eigenvalues --   -0.39616  -0.39529  -0.39171  -0.39126  -0.38979
 Alpha  occ. eigenvalues --   -0.38908  -0.38801  -0.38683  -0.38592  -0.38538
 Alpha  occ. eigenvalues --   -0.38479  -0.38171  -0.37751  -0.37339  -0.36695
 Alpha  occ. eigenvalues --   -0.36576  -0.35885  -0.35671  -0.35236  -0.34749
 Alpha  occ. eigenvalues --   -0.34409  -0.34005  -0.33800  -0.33302  -0.32885
 Alpha  occ. eigenvalues --   -0.32795  -0.32696  -0.32374  -0.32233  -0.32063
 Alpha  occ. eigenvalues --   -0.31878  -0.31538  -0.31300  -0.30982  -0.30951
 Alpha  occ. eigenvalues --   -0.30726  -0.30381  -0.30299  -0.30125  -0.29897
 Alpha  occ. eigenvalues --   -0.29535  -0.28737  -0.28413  -0.28227  -0.28070
 Alpha  occ. eigenvalues --   -0.27993  -0.27726  -0.25844  -0.22773  -0.22483
 Alpha  occ. eigenvalues --   -0.17347
 Alpha virt. eigenvalues --   -0.04040   0.01123   0.02146   0.03373   0.05274
 Alpha virt. eigenvalues --    0.05399   0.05843   0.06055   0.06323   0.07424
 Alpha virt. eigenvalues --    0.07610   0.08013   0.08475   0.08612   0.10195

 Mulliken charges:
               1
     1  C   -0.256969
     2  C    0.356817
     3  C   -0.214873
     4  C   -0.571835
     5  S    0.235058
     6  O   -0.325507
     7  H    0.243793
     8  C   -0.259552
     9  C    0.363591
    10  C   -0.207882
    11  C   -0.578623
    12  S    0.242651
    13  O   -0.327346
    14  H    0.244773
    15  C   -0.228572
    16  H    0.183641
    17  H    0.200785
    18  C   -0.372543
    19  H    0.191603
    20  H    0.205115
    21  C   -0.353793
    22  H    0.203094
    23  H    0.166720
    24  C   -0.359956
    25  H    0.184198
    26  H    0.170290
    27  C   -0.349313
    28  H    0.181248
    29  H    0.174021
    30  C   -0.349068
    31  H    0.173491
    32  H    0.179620
    33  C   -0.341390
    34  H    0.173226
    35  H    0.166368
    36  C   -0.320570
    37  H    0.183869
    38  H    0.165162
    39  C   -0.306873
    40  H    0.174941
    41  H    0.172761
    42  C   -0.653861
    43  H    0.193355
    44  H    0.194055
    45  H    0.199690
    46  C   -0.237977
    47  H    0.195039
    48  H    0.181945
    49  C   -0.370589
    50  H    0.196155
    51  H    0.183787
    52  C   -0.343735
    53  H    0.222776
    54  H    0.158081
    55  C   -0.353564
    56  H    0.175568
    57  H    0.184468
    58  C   -0.350985
    59  H    0.180784
    60  H    0.171661
    61  C   -0.350547
    62  H    0.173443
    63  H    0.168278
    64  C   -0.339208
    65  H    0.186139
    66  H    0.165723
    67  C   -0.306683
    68  H    0.167863
    69  H    0.164353
    70  C   -0.314771
    71  H    0.175049
    72  H    0.175000
    73  C   -0.653374
    74  H    0.194215
    75  H    0.199066
    76  H    0.193983
    77  Sn   1.199063
    78  C   -0.968697
    79  H    0.231036
    80  H    0.221017
    81  H    0.232149
    82  C   -0.966578
    83  H    0.230653
    84  H    0.231841
    85  H    0.220930
    86  C   -0.986988
    87  H    0.228464
    88  H    0.229675
    89  H    0.228931
    90  Sn   1.199060
    91  C   -0.967783
    92  H    0.232215
    93  H    0.220789
    94  H    0.230756
    95  C   -0.967330
    96  H    0.220773
    97  H    0.232160
    98  H    0.230611
    99  C   -0.987085
   100  H    0.229220
   101  H    0.229449
   102  H    0.228316
 Sum of Mulliken charges =  -0.00000

 Dipole moment (field-independent basis, Debye):
    X=              0.4633    Y=             -0.1145    Z=             -0.1233  Tot=              0.4929
 Quadrupole moment (field-independent basis, Debye-Ang):
   XX=           -265.8882   YY=           -259.2735   ZZ=           -289.9998
   XY=             -8.8912   XZ=             -1.2153   YZ=              1.2226

 ESP charges:
               1
     1  C   -0.245412
     2  C    0.675900
     3  C   -0.475209
     4  C   -0.314802
     5  S   -0.015274
     6  O   -0.545182
     7  H    0.185514
     8  C   -0.064464
     9  C    0.508768
    10  C   -0.406702
    11  C   -0.326146
    12  S   -0.057785
    13  O   -0.375846
    14  H    0.178016
    15  C    0.270388
    16  H    0.040654
    17  H    0.039525
    18  C   -0.167577
    19  H    0.088010
    20  H    0.083477
    21  C   -0.132074
    22  H    0.062867
    23  H    0.063607
    24  C   -0.163973
    25  H    0.044583
    26  H    0.077498
    27  C   -0.095453
    28  H    0.051943
    29  H    0.059708
    30  C    0.003205
    31  H    0.039333
    32  H    0.036608
    33  C   -0.275486
    34  H    0.063788
    35  H    0.074577
    36  C    0.045291
    37  H    0.003732
    38  H    0.021905
    39  C    0.143345
    40  H   -0.009275
    41  H   -0.004140
    42  C   -0.429828
    43  H    0.102654
    44  H    0.096191
    45  H    0.109109
    46  C   -0.006329
    47  H    0.090274
    48  H    0.091934
    49  C   -0.063968
    50  H    0.062326
    51  H    0.027043
    52  C   -0.036955
    53  H    0.019205
    54  H    0.041536
    55  C   -0.111244
    56  H    0.057428
    57  H    0.057887
    58  C   -0.084549
    59  H    0.053389
    60  H    0.040793
    61  C   -0.112385
    62  H    0.031286
    63  H    0.045675
    64  C    0.007092
    65  H   -0.001079
    66  H    0.013708
    67  C   -0.080074
    68  H    0.023154
    69  H    0.027625
    70  C    0.201035
    71  H   -0.020028
    72  H   -0.026065
    73  C   -0.422601
    74  H    0.098704
    75  H    0.101310
    76  H    0.098717
    77  Sn   1.200977
    78  C   -0.786812
    79  H    0.164564
    80  H    0.165816
    81  H    0.180628
    82  C   -0.832829
    83  H    0.177695
    84  H    0.189483
    85  H    0.179057
    86  C   -0.851111
    87  H    0.183861
    88  H    0.190791
    89  H    0.191955
    90  Sn   1.200183
    91  C   -0.810934
    92  H    0.189507
    93  H    0.169964
    94  H    0.172736
    95  C   -0.810168
    96  H    0.171247
    97  H    0.186960
    98  H    0.172468
    99  C   -0.855497
   100  H    0.191224
   101  H    0.191183
   102  H    0.186640
 Sum of ESP charges =  -0.00000

 Normal termination of Gaussian 16 at Mon Jan 20 20:53:04 2020.
