 Gaussian 16, Revision A.03,
 Gaussian 16:  ES64L-G16RevA.03 25-Dec-2016

 ------------------------------
 #p pop=MKUFF b3lyp/6-311g(d,p)
 ------------------------------

 ----------------------
 OBT_1m_14sc_Br_pop.gjf
 ----------------------
 Symbolic Z-matrix:
 Charge =  0 Multiplicity = 1

                         Standard orientation:
 ---------------------------------------------------------------------
 Center     Atomic      Atomic             Coordinates (Angstroms)
 Number     Number       Type             X           Y           Z
 ---------------------------------------------------------------------
      1          6           0       -0.067376    0.767398   -0.417765
      2          6           0       -1.357816    1.194270   -0.146637
      3          6           0       -1.514343    2.609114   -0.126412
      4          6           0       -0.342996    3.259040   -0.382156
      5         16           0        0.969194    2.168610   -0.651757
      6          8           0       -2.340363    0.273627    0.070352
      7          1           0       -2.447886    3.116823    0.066860
      8          6           0        0.422609   -0.588196   -0.509626
      9          6           0        1.713048   -1.015068   -0.780755
     10          6           0        1.870543   -2.429773   -0.801186
     11          6           0        0.698229   -3.079838   -0.545235
     12         16           0       -0.614031   -1.990407   -0.276632
     13          8           0        2.695387   -0.094434   -0.998721
     14          1           0        2.803049   -2.938620   -0.995249
     15          6           0       -3.668924    0.731292    0.335625
     16          1           0       -3.668476    1.334942    1.219087
     17          1           0       -4.018308    1.311590   -0.492678
     18          6           0       -4.597475   -0.479839    0.541914
     19          1           0       -4.603275   -1.079808   -0.344034
     20          1           0       -4.244149   -1.063896    1.365891
     21          6           0       -6.026202    0.013143    0.837394
     22          1           0       -6.671633   -0.828369    0.979436
     23          1           0       -6.020622    0.612038    1.724069
     24          6           0       -6.534020    0.855311   -0.347711
     25          1           0       -6.262132    1.879570   -0.199824
     26          1           0       -6.093727    0.496787   -1.254630
     27          6           0       -8.066847    0.739319   -0.440378
     28          1           0       -8.503519    1.029308    0.492427
     29          1           0       -8.426752    1.380855   -1.217424
     30          6           0       -8.453198   -0.717370   -0.757220
     31          1           0       -7.800885   -1.103148   -1.512577
     32          1           0       -8.363541   -1.310879    0.128561
     33          6           0       -9.907430   -0.764618   -1.261777
     34          1           0      -10.202948   -1.783220   -1.403261
     35          1           0       -9.979616   -0.239876   -2.191474
     36          6           0      -10.832441   -0.101075   -0.224634
     37          1           0      -10.776457    0.962672   -0.325672
     38          1           0      -10.523661   -0.382525    0.760424
     39          6           0      -12.282438   -0.563454   -0.459822
     40          1           0      -12.565113   -0.351218   -1.469748
     41          1           0      -12.354162   -1.616323   -0.283124
     42          6           0      -13.222366    0.184052    0.504217
     43          1           0      -13.155511    1.236492    0.323105
     44          1           0      -12.935634   -0.022996    1.514076
     45          6           0      -14.671195   -0.285175    0.275478
     46          1           0      -14.739712   -1.336175    0.464168
     47          1           0      -14.955282   -0.085234   -0.736558
     48          6           0      -15.612538    0.470488    1.231745
     49          1           0      -15.545018    1.521391    1.042151
     50          1           0      -15.327621    0.271612    2.243759
     51          6           0      -17.061126   -0.000129    1.004343
     52          1           0      -17.715601    0.527358    1.666400
     53          1           0      -17.344893    0.195653   -0.008596
     54          6           0      -17.159348   -1.511714    1.281949
     55          1           0      -16.867395   -2.054671    0.407386
     56          1           0      -16.511266   -1.768092    2.093835
     57          1           0      -18.167628   -1.762634    1.537507
     58          6           0        3.537659   -0.912126   -0.182106
     59          1           0        2.996536   -1.226503    0.685796
     60          1           0        3.849023   -1.771177   -0.738867
     61          6           0        4.775400   -0.103856    0.249516
     62          1           0        4.538438    0.474965    1.117684
     63          1           0        5.577993   -0.774275    0.475973
     64          6           0        5.199054    0.836246   -0.894305
     65          1           0        4.716996    1.783921   -0.774165
     66          1           0        4.914172    0.407551   -1.832368
     67          6           0        6.726527    1.029406   -0.860927
     68          1           0        7.009998    1.757647   -1.591824
     69          1           0        7.022377    1.365537    0.110869
     70          6           0        7.420211   -0.309333   -1.174266
     71          1           0        7.372486   -0.945419   -0.315187
     72          1           0        6.926224   -0.783084   -1.996723
     73          6           0        8.893553   -0.050734   -1.540311
     74          1           0        9.396527   -0.985265   -1.676580
     75          1           0        8.941722    0.515737   -2.446782
     76          6           0        9.573661    0.737594   -0.405590
     77          1           0        9.318516    1.773436   -0.488246
     78          1           0        9.239874    0.362342    0.539223
     79          6           0       11.101388    0.575166   -0.511731
     80          1           0       11.425526    0.878466   -1.485303
     81          1           0       11.363024   -0.449984   -0.351998
     82          6           0       11.786039    1.451662    0.553449
     83          1           0       11.534819    2.478169    0.385904
     84          1           0       11.452027    1.156931    1.526316
     85          6           0       13.312983    1.274947    0.459568
     86          1           0       13.645582    1.559365   -0.516845
     87          1           0       13.789195    1.892217    1.192439
     88          6           0       13.675842   -0.199526    0.716208
     89          1           0       13.032811   -0.598636    1.472596
     90          1           0       13.553837   -0.759354   -0.187455
     91          6           0       15.139780   -0.293843    1.184813
     92          1           0       15.246127    0.205421    2.125199
     93          1           0       15.776626    0.169909    0.460754
     94          6           0       15.534073   -1.774182    1.342068
     95          1           0       15.414533   -2.276611    0.404958
     96          1           0       14.906270   -2.234457    2.076173
     97          6           0       17.003982   -1.868945    1.791499
     98          1           0       17.124066   -1.364228    2.727309
     99          1           0       17.277158   -2.897424    1.903330
    100          1           0       17.632021   -1.411025    1.056124
    101         35           0        0.423194   -4.854555    0.075036
    102         35           0        0.103465    4.945517    0.370483
 ---------------------------------------------------------------------

 SCF Done:  E(RB3LYP) =  -7503.40044448     A.U. after   14 cycles

 The electronic state is 1-A.
 Alpha  occ. eigenvalues -- -482.84286-482.83795 -88.88265 -88.88028 -62.49557
 Alpha  occ. eigenvalues --  -62.49071 -56.31612 -56.31191 -56.31191 -56.31127
 Alpha  occ. eigenvalues --  -56.30706 -56.30702 -19.16609 -19.16022 -10.24843
 Alpha  occ. eigenvalues --  -10.24587 -10.24506 -10.24486 -10.22939 -10.22253
 Alpha  occ. eigenvalues --  -10.21722 -10.21545 -10.18980 -10.18964 -10.17078
 Alpha  occ. eigenvalues --  -10.16655 -10.16265 -10.15971 -10.15918 -10.15731
 Alpha  occ. eigenvalues --  -10.15511 -10.15421 -10.15406 -10.15402 -10.15367
 Alpha  occ. eigenvalues --  -10.15355 -10.15318 -10.15291 -10.15287 -10.15255
 Alpha  occ. eigenvalues --  -10.15240 -10.15209 -10.15192 -10.15150 -10.15109
 Alpha  occ. eigenvalues --  -10.15092 -10.15056 -10.15007 -10.14661 -10.14549
 Alpha  occ. eigenvalues --   -8.70516  -8.70035  -7.96863  -7.96641  -6.53718
 Alpha  occ. eigenvalues --   -6.53240  -6.52328  -6.52316  -6.51849  -6.51828
 Alpha  occ. eigenvalues --   -5.93197  -5.92972  -5.92790  -5.92572  -5.92394
 Alpha  occ. eigenvalues --   -5.92164  -2.64799  -2.64400  -2.64389  -2.64320
 Alpha  occ. eigenvalues --   -2.63924  -2.63906  -2.63286  -2.63286  -2.62803
 Alpha  occ. eigenvalues --   -2.62803  -1.10603  -1.07713  -0.90735  -0.89490
 Alpha  occ. eigenvalues --   -0.83233  -0.82518  -0.82241  -0.81716  -0.81324
 Alpha  occ. eigenvalues --   -0.80703  -0.80150  -0.79547  -0.78074  -0.77723
 Alpha  occ. eigenvalues --   -0.76809  -0.75720  -0.74707  -0.74458  -0.73162
 Alpha  occ. eigenvalues --   -0.72157  -0.71551  -0.69995  -0.68979  -0.67701
 Alpha  occ. eigenvalues --   -0.66457  -0.65496  -0.63612  -0.63506  -0.61793
 Alpha  occ. eigenvalues --   -0.61258  -0.60103  -0.59863  -0.59548  -0.58817
 Alpha  occ. eigenvalues --   -0.58450  -0.57458  -0.57140  -0.56938  -0.56645
 Alpha  occ. eigenvalues --   -0.56330  -0.55902  -0.55068  -0.54077  -0.51149
 Alpha  occ. eigenvalues --   -0.50325  -0.50033  -0.49521  -0.49051  -0.48315
 Alpha  occ. eigenvalues --   -0.48071  -0.47788  -0.46782  -0.46266  -0.46064
 Alpha  occ. eigenvalues --   -0.45847  -0.45362  -0.45039  -0.44545  -0.44117
 Alpha  occ. eigenvalues --   -0.43934  -0.43735  -0.43477  -0.43029  -0.42407
 Alpha  occ. eigenvalues --   -0.42249  -0.42055  -0.41673  -0.41651  -0.41080
 Alpha  occ. eigenvalues --   -0.40607  -0.40311  -0.39779  -0.39539  -0.39406
 Alpha  occ. eigenvalues --   -0.39227  -0.39004  -0.38907  -0.38160  -0.38059
 Alpha  occ. eigenvalues --   -0.37771  -0.37429  -0.37173  -0.37138  -0.36852
 Alpha  occ. eigenvalues --   -0.36503  -0.36252  -0.35823  -0.35434  -0.35331
 Alpha  occ. eigenvalues --   -0.35081  -0.34540  -0.34392  -0.34336  -0.34236
 Alpha  occ. eigenvalues --   -0.33872  -0.33691  -0.33587  -0.33527  -0.33354
 Alpha  occ. eigenvalues --   -0.33293  -0.33255  -0.32936  -0.32732  -0.32501
 Alpha  occ. eigenvalues --   -0.32389  -0.32161  -0.31957  -0.31759  -0.31286
 Alpha  occ. eigenvalues --   -0.31116  -0.30426  -0.30370  -0.29914  -0.29733
 Alpha  occ. eigenvalues --   -0.29655  -0.28384  -0.28192  -0.26401  -0.24666
 Alpha  occ. eigenvalues --   -0.24287  -0.19398
 Alpha virt. eigenvalues --   -0.06344  -0.03606  -0.01144   0.00511   0.01881
 Alpha virt. eigenvalues --    0.02438   0.03267   0.03621   0.04120   0.04358
 Alpha virt. eigenvalues --    0.04650   0.04793   0.04981   0.05155   0.05203

 Mulliken charges:
               1
     1  C   -0.246556
     2  C    0.239643
     3  C   -0.038947
     4  C   -0.362305
     5  S    0.384180
     6  O   -0.380284
     7  H    0.122413
     8  C   -0.206347
     9  C    0.173704
    10  C   -0.001928
    11  C   -0.360877
    12  S    0.371829
    13  O   -0.321754
    14  H    0.112548
    15  C   -0.021620
    16  H    0.112393
    17  H    0.126177
    18  C   -0.225195
    19  H    0.127202
    20  H    0.125029
    21  C   -0.223366
    22  H    0.118513
    23  H    0.112712
    24  C   -0.239118
    25  H    0.111657
    26  H    0.116101
    27  C   -0.226213
    28  H    0.116967
    29  H    0.110897
    30  C   -0.218490
    31  H    0.108033
    32  H    0.110201
    33  C   -0.202654
    34  H    0.105656
    35  H    0.109030
    36  C   -0.225169
    37  H    0.114590
    38  H    0.106667
    39  C   -0.205903
    40  H    0.104746
    41  H    0.105643
    42  C   -0.204813
    43  H    0.104165
    44  H    0.102173
    45  C   -0.215017
    46  H    0.114789
    47  H    0.103413
    48  C   -0.221738
    49  H    0.105682
    50  H    0.106391
    51  C   -0.222592
    52  H    0.107805
    53  H    0.108519
    54  C   -0.311739
    55  H    0.111434
    56  H    0.105216
    57  H    0.106559
    58  C   -0.108569
    59  H    0.149163
    60  H    0.124299
    61  C   -0.205793
    62  H    0.115681
    63  H    0.106680
    64  C   -0.206879
    65  H    0.123064
    66  H    0.119277
    67  C   -0.236313
    68  H    0.110750
    69  H    0.115439
    70  C   -0.215071
    71  H    0.105731
    72  H    0.104107
    73  C   -0.202775
    74  H    0.103284
    75  H    0.109423
    76  C   -0.220278
    77  H    0.115672
    78  H    0.105008
    79  C   -0.212898
    80  H    0.103400
    81  H    0.115869
    82  C   -0.219181
    83  H    0.104435
    84  H    0.104925
    85  C   -0.201882
    86  H    0.106650
    87  H    0.104915
    88  C   -0.224759
    89  H    0.106864
    90  H    0.113661
    91  C   -0.208557
    92  H    0.105508
    93  H    0.104645
    94  C   -0.231908
    95  H    0.105588
    96  H    0.105283
    97  C   -0.285583
    98  H    0.100380
    99  H    0.103048
   100  H    0.100758
   101  Br   0.028164
   102  Br   0.018727
 Sum of Mulliken charges =  -0.00000

 Dipole moment (field-independent basis, Debye):
    X=             -1.2273    Y=             -0.4749    Z=              1.1383  Tot=              1.7399
 Quadrupole moment (field-independent basis, Debye-Ang):
   XX=           -281.0260   YY=           -313.6630   ZZ=           -308.1824
   XY=             -8.0596   XZ=             -1.9227   YZ=              0.1935

 ESP charges:
               1
     1  C   -0.153496
     2  C    0.377846
     3  C   -0.275595
     4  C   -0.102032
     5  S    0.070560
     6  O   -0.408081
     7  H    0.159168
     8  C   -0.092149
     9  C    0.407298
    10  C   -0.306675
    11  C   -0.114759
    12  S    0.029247
    13  O   -0.350251
    14  H    0.180897
    15  C    0.402148
    16  H   -0.014356
    17  H   -0.013481
    18  C   -0.224817
    19  H    0.084372
    20  H    0.068771
    21  C   -0.035073
    22  H    0.027053
    23  H    0.039707
    24  C   -0.137952
    25  H    0.023232
    26  H    0.052737
    27  C    0.075634
    28  H   -0.025117
    29  H    0.007170
    30  C   -0.073840
    31  H    0.036309
    32  H    0.053406
    33  C   -0.189775
    34  H    0.019386
    35  H    0.052167
    36  C    0.309720
    37  H   -0.062492
    38  H   -0.041163
    39  C   -0.117166
    40  H    0.010453
    41  H    0.029623
    42  C   -0.212234
    43  H    0.049757
    44  H    0.026836
    45  C    0.331894
    46  H   -0.057756
    47  H   -0.046341
    48  C   -0.176360
    49  H    0.008211
    50  H    0.043652
    51  C    0.123653
    52  H   -0.010375
    53  H   -0.016298
    54  C   -0.256544
    55  H    0.045415
    56  H    0.072307
    57  H    0.057320
    58  C    0.138978
    59  H    0.032044
    60  H    0.053217
    61  C    0.026338
    62  H    0.032032
    63  H   -0.052441
    64  C   -0.188230
    65  H    0.063156
    66  H    0.065281
    67  C    0.069121
    68  H    0.010420
    69  H   -0.013209
    70  C   -0.000847
    71  H    0.056139
    72  H    0.012600
    73  C   -0.223403
    74  H    0.033238
    75  H    0.066750
    76  C    0.063502
    77  H   -0.013537
    78  H    0.009975
    79  C    0.093244
    80  H   -0.006086
    81  H   -0.029726
    82  C   -0.117223
    83  H    0.013983
    84  H    0.013897
    85  C    0.090951
    86  H   -0.016500
    87  H   -0.036548
    88  C    0.035457
    89  H    0.002481
    90  H   -0.016817
    91  C   -0.084714
    92  H    0.026919
    93  H    0.002609
    94  C    0.274284
    95  H   -0.051040
    96  H   -0.064347
    97  C   -0.313529
    98  H    0.064152
    99  H    0.062749
   100  H    0.067687
   101  Br   0.001699
   102  Br  -0.016474
 Sum of ESP charges =  -0.00000

 Normal termination of Gaussian 16 at Fri Jan 17 13:07:09 2020.
