 Gaussian 16, Revision A.03,
 Gaussian 16:  ES64L-G16RevA.03 25-Dec-2016

 ------------------------
 #p opt b3lyp/6-311g(d,p)
 ------------------------

 ----------------------
 OBT_1m_14sc_Sn_opt.gjf
 ----------------------
 Symbolic Z-matrix:
 Charge =  0 Multiplicity = 1

 SCF Done:  E(RB3LYP) =  -7503.40044448     A.U. after   14 cycles
 SCF Done:  E(RB3LYP) =  -7503.47457847     A.U. after   14 cycles
 SCF Done:  E(RB3LYP) =  -7503.47860913     A.U. after   15 cycles
 SCF Done:  E(RB3LYP) =  -7503.49659769     A.U. after   13 cycles
 SCF Done:  E(RB3LYP) =  -7503.52390915     A.U. after   12 cycles
 SCF Done:  E(RB3LYP) =  -7503.52912696     A.U. after   12 cycles
 SCF Done:  E(RB3LYP) =  -7503.53800993     A.U. after   12 cycles
 SCF Done:  E(RB3LYP) =  -7503.54222066     A.U. after   12 cycles
 SCF Done:  E(RB3LYP) =  -7503.54384917     A.U. after   13 cycles
 SCF Done:  E(RB3LYP) =  -7503.54642736     A.U. after   11 cycles
 SCF Done:  E(RB3LYP) =  -7503.54781930     A.U. after   11 cycles
 SCF Done:  E(RB3LYP) =  -7503.54782270     A.U. after    9 cycles
 SCF Done:  E(RB3LYP) =  -7503.54782437     A.U. after    9 cycles
 SCF Done:  E(RB3LYP) =  -7503.54782486     A.U. after    8 cycles
 SCF Done:  E(RB3LYP) =  -7503.54782524     A.U. after    8 cycles
 SCF Done:  E(RB3LYP) =  -7503.54782552     A.U. after    8 cycles
 SCF Done:  E(RB3LYP) =  -7503.54782576     A.U. after    9 cycles
 SCF Done:  E(RB3LYP) =  -7503.54782583     A.U. after    8 cycles
 SCF Done:  E(RB3LYP) =  -7503.54782580     A.U. after    6 cycles
 SCF Done:  E(RB3LYP) =  -7503.54782580     A.U. after    5 cycles
 Optimization completed.
    -- Stationary point found.

                         Standard orientation:
 ---------------------------------------------------------------------
 Center     Atomic      Atomic             Coordinates (Angstroms)
 Number     Number       Type             X           Y           Z
 ---------------------------------------------------------------------
      1          6           0        0.202457   -1.126067    0.087874
      2          6           0       -0.980153   -0.409833   -0.003719
      3          6           0       -0.808919    0.999841   -0.122797
      4          6           0        0.510854    1.342651   -0.119950
      5         16           0        1.573102   -0.017536    0.027080
      6          8           0       -2.167804   -1.072296    0.031338
      7          1           0       -1.611173    1.716591   -0.204856
      8          6           0        0.368351   -2.551215    0.223105
      9          6           0        1.550883   -3.269027    0.306282
     10          6           0        1.377440   -4.676561    0.445473
     11          6           0        0.056760   -5.015657    0.462769
     12         16           0       -1.004414   -3.655392    0.313244
     13          8           0        2.740274   -2.610935    0.249860
     14          1           0        2.178496   -5.394660    0.526698
     15          6           0       -3.378038   -0.315497   -0.104693
     16          1           0       -3.448106    0.411727    0.714492
     17          1           0       -3.354342    0.231731   -1.053342
     18          6           0       -4.542138   -1.293218   -0.049504
     19          1           0       -4.447657   -2.000615   -0.880102
     20          1           0       -4.445545   -1.875454    0.871787
     21          6           0       -5.920914   -0.615341   -0.087187
     22          1           0       -6.673563   -1.379787    0.126416
     23          1           0       -5.992465    0.114185    0.730428
     24          6           0       -6.260705    0.077734   -1.415473
     25          1           0       -5.515504    0.852683   -1.626757
     26          1           0       -6.179476   -0.651927   -2.231805
     27          6           0       -7.653228    0.728691   -1.453741
     28          1           0       -7.734017    1.442463   -0.625549
     29          1           0       -7.734872    1.321050   -2.373394
     30          6           0       -8.824679   -0.263394   -1.409791
     31          1           0       -8.671535   -1.016985   -2.192383
     32          1           0       -8.822199   -0.808342   -0.458474
     33          6           0      -10.207441    0.377546   -1.609299
     34          1           0      -10.951105   -0.421707   -1.713792
     35          1           0      -10.217091    0.925640   -2.560573
     36          6           0      -10.652184    1.315844   -0.479711
     37          1           0       -9.951240    2.153915   -0.391090
     38          1           0      -10.604271    0.775887    0.475287
     39          6           0      -12.067967    1.871113   -0.675037
     40          1           0      -12.118205    2.402968   -1.634002
     41          1           0      -12.775906    1.036002   -0.754574
     42          6           0      -12.519633    2.811652    0.447978
     43          1           0      -11.811489    3.646685    0.527244
     44          1           0      -12.469120    2.279853    1.406979
     45          6           0      -13.935437    3.367149    0.253336
     46          1           0      -14.637038    2.529309    0.168063
     47          1           0      -13.984613    3.904680   -0.702947
     48          6           0      -14.378155    4.308370    1.380945
     49          1           0      -13.638354    5.112434    1.477383
     50          1           0      -14.360004    3.764366    2.334639
     51          6           0      -15.766603    4.937957    1.187191
     52          1           0      -15.918947    5.693419    1.966170
     53          1           0      -15.785753    5.479491    0.233255
     54          6           0      -16.929584    3.940370    1.230845
     55          1           0      -16.873672    3.210921    0.418606
     56          1           0      -16.935715    3.385602    2.174834
     57          1           0      -17.891045    4.453814    1.142858
     58          6           0        3.948250   -3.366144    0.423351
     59          1           0        3.927463   -3.856117    1.403867
     60          1           0        4.007379   -4.140723   -0.351927
     61          6           0        5.129285   -2.414609    0.321453
     62          1           0        5.009819   -1.630449    1.077460
     63          1           0        6.024969   -2.982217    0.595901
     64          6           0        5.297550   -1.783467   -1.067002
     65          1           0        4.354006   -1.309410   -1.350153
     66          1           0        5.478445   -2.577787   -1.803430
     67          6           0        6.424392   -0.742897   -1.153808
     68          1           0        6.371865   -0.256227   -2.135271
     69          1           0        6.235328    0.044604   -0.415251
     70          6           0        7.838016   -1.312780   -0.966733
     71          1           0        7.943721   -1.735627    0.039782
     72          1           0        7.970746   -2.149858   -1.663793
     73          6           0        8.969016   -0.297552   -1.197062
     74          1           0        9.926179   -0.833086   -1.194815
     75          1           0        8.866453    0.134382   -2.201182
     76          6           0        9.038079    0.834093   -0.163396
     77          1           0        8.109160    1.415499   -0.181747
     78          1           0        9.104588    0.397634    0.842155
     79          6           0       10.222925    1.783265   -0.380476
     80          1           0       10.155826    2.220901   -1.385374
     81          1           0       11.152111    1.202063   -0.363030
     82          6           0       10.291427    2.913476    0.654772
     83          1           0        9.332915    3.446591    0.654494
     84          1           0       10.395151    2.479678    1.658064
     85          6           0       11.419044    3.932257    0.426263
     86          1           0       11.319584    4.360567   -0.579785
     87          1           0       11.282773    4.767363    1.124143
     88          6           0       12.837945    3.375241    0.600991
     89          1           0       12.923197    2.915806    1.594757
     90          1           0       13.016316    2.571253   -0.122388
     91          6           0       13.930740    4.438481    0.441140
     92          1           0       13.763238    5.242913    1.169274
     93          1           0       13.841114    4.903717   -0.549269
     94          6           0       15.352538    3.891749    0.613079
     95          1           0       15.520746    3.089552   -0.115759
     96          1           0       15.442383    3.426273    1.602161
     97          6           0       16.436840    4.961209    0.452821
     98          1           0       16.316632    5.760050    1.191375
     99          1           0       17.437481    4.539206    0.580782
    100          1           0       16.394992    5.421110   -0.539556
    101         35           0       -0.646662   -6.763146    0.625969
    102         35           0        1.212664    3.092761   -0.259383
 ---------------------------------------------------------------------

 The electronic state is 1-A.
 Alpha  occ. eigenvalues -- -482.84118-482.84053 -88.88309 -88.88242 -62.49391
 Alpha  occ. eigenvalues --  -62.49326 -56.31442 -56.31377 -56.31028 -56.31027
 Alpha  occ. eigenvalues --  -56.30963 -56.30962 -19.15983 -19.15953 -10.24702
 Alpha  occ. eigenvalues --  -10.24632 -10.24148 -10.24125 -10.23532 -10.23474
 Alpha  occ. eigenvalues --  -10.21202 -10.21154 -10.18746 -10.18682 -10.17609
 Alpha  occ. eigenvalues --  -10.17568 -10.17462 -10.17109 -10.16754 -10.16573
 Alpha  occ. eigenvalues --  -10.16571 -10.16465 -10.16386 -10.16384 -10.16361
 Alpha  occ. eigenvalues --  -10.16315 -10.16275 -10.16266 -10.16250 -10.16233
 Alpha  occ. eigenvalues --  -10.16186 -10.16139 -10.16095 -10.16093 -10.16071
 Alpha  occ. eigenvalues --  -10.16034 -10.16033 -10.15991 -10.15609 -10.15569
 Alpha  occ. eigenvalues --   -8.70355  -8.70290  -7.96865  -7.96797  -6.53545
 Alpha  occ. eigenvalues --   -6.53480  -6.52171  -6.52162  -6.52106  -6.52097
 Alpha  occ. eigenvalues --   -5.93202  -5.93134  -5.92806  -5.92737  -5.92389
 Alpha  occ. eigenvalues --   -5.92321  -2.64631  -2.64566  -2.64234  -2.64223
 Alpha  occ. eigenvalues --   -2.64169  -2.64159  -2.63134  -2.63134  -2.63070
 Alpha  occ. eigenvalues --   -2.63069  -1.07732  -1.07643  -0.90403  -0.89110
 Alpha  occ. eigenvalues --   -0.82720  -0.82313  -0.81871  -0.81393  -0.81102
 Alpha  occ. eigenvalues --   -0.80604  -0.79850  -0.79610  -0.77983  -0.77803
 Alpha  occ. eigenvalues --   -0.76011  -0.75793  -0.75468  -0.74067  -0.73224
 Alpha  occ. eigenvalues --   -0.72474  -0.71522  -0.70174  -0.69065  -0.67840
 Alpha  occ. eigenvalues --   -0.66408  -0.65250  -0.63445  -0.63120  -0.61310
 Alpha  occ. eigenvalues --   -0.60996  -0.59664  -0.59156  -0.58942  -0.58134
 Alpha  occ. eigenvalues --   -0.57818  -0.57190  -0.56782  -0.56548  -0.56264
 Alpha  occ. eigenvalues --   -0.56119  -0.55837  -0.54650  -0.54378  -0.49913
 Alpha  occ. eigenvalues --   -0.49790  -0.48858  -0.48512  -0.47909  -0.47691
 Alpha  occ. eigenvalues --   -0.47486  -0.46753  -0.46435  -0.45972  -0.45652
 Alpha  occ. eigenvalues --   -0.45458  -0.44995  -0.44562  -0.44345  -0.43913
 Alpha  occ. eigenvalues --   -0.43830  -0.43632  -0.43154  -0.42950  -0.42737
 Alpha  occ. eigenvalues --   -0.42305  -0.41958  -0.41553  -0.41044  -0.40909
 Alpha  occ. eigenvalues --   -0.40530  -0.40038  -0.39883  -0.39664  -0.39321
 Alpha  occ. eigenvalues --   -0.39115  -0.38467  -0.38419  -0.38304  -0.38086
 Alpha  occ. eigenvalues --   -0.37644  -0.37490  -0.37303  -0.36563  -0.36423
 Alpha  occ. eigenvalues --   -0.36398  -0.35862  -0.35660  -0.35191  -0.34806
 Alpha  occ. eigenvalues --   -0.34727  -0.34533  -0.34338  -0.34187  -0.34019
 Alpha  occ. eigenvalues --   -0.33695  -0.33564  -0.33472  -0.33390  -0.33044
 Alpha  occ. eigenvalues --   -0.32995  -0.32857  -0.32576  -0.32302  -0.32266
 Alpha  occ. eigenvalues --   -0.32125  -0.32020  -0.31979  -0.31833  -0.31511
 Alpha  occ. eigenvalues --   -0.31309  -0.31056  -0.30798  -0.30241  -0.30207
 Alpha  occ. eigenvalues --   -0.30178  -0.30118  -0.29785  -0.26511  -0.24706
 Alpha  occ. eigenvalues --   -0.24260  -0.18549
 Alpha virt. eigenvalues --   -0.04906  -0.01863  -0.01338  -0.00297   0.01648
 Alpha virt. eigenvalues --    0.02159   0.03419   0.04084   0.04159   0.04391
 Alpha virt. eigenvalues --    0.04534   0.04690   0.04881   0.05191   0.05283

 Mulliken charges:
               1
     1  C   -0.248537
     2  C    0.251699
     3  C   -0.034597
     4  C   -0.371446
     5  S    0.398029
     6  O   -0.382122
     7  H    0.119030
     8  C   -0.240875
     9  C    0.250431
    10  C   -0.035028
    11  C   -0.361869
    12  S    0.383466
    13  O   -0.385012
    14  H    0.119462
    15  C   -0.015127
    16  H    0.110366
    17  H    0.117122
    18  C   -0.223776
    19  H    0.122376
    20  H    0.127413
    21  C   -0.224683
    22  H    0.118413
    23  H    0.104595
    24  C   -0.210635
    25  H    0.103372
    26  H    0.106390
    27  C   -0.206981
    28  H    0.106982
    29  H    0.105445
    30  C   -0.207432
    31  H    0.104410
    32  H    0.105299
    33  C   -0.207065
    34  H    0.104323
    35  H    0.101774
    36  C   -0.203279
    37  H    0.105327
    38  H    0.100203
    39  C   -0.200272
    40  H    0.100935
    41  H    0.100760
    42  C   -0.200415
    43  H    0.100045
    44  H    0.100744
    45  C   -0.201883
    46  H    0.105542
    47  H    0.099647
    48  C   -0.211194
    49  H    0.103245
    50  H    0.100770
    51  C   -0.222226
    52  H    0.106122
    53  H    0.103046
    54  C   -0.294094
    55  H    0.104413
    56  H    0.101257
    57  H    0.106446
    58  C   -0.028844
    59  H    0.120383
    60  H    0.111672
    61  C   -0.221201
    62  H    0.122559
    63  H    0.111444
    64  C   -0.213944
    65  H    0.136318
    66  H    0.097906
    67  C   -0.212783
    68  H    0.106843
    69  H    0.112191
    70  C   -0.208989
    71  H    0.102872
    72  H    0.102760
    73  C   -0.206497
    74  H    0.102729
    75  H    0.102026
    76  C   -0.202113
    77  H    0.107034
    78  H    0.099274
    79  C   -0.201456
    80  H    0.100177
    81  H    0.105171
    82  C   -0.206732
    83  H    0.103675
    84  H    0.100492
    85  C   -0.206573
    86  H    0.100908
    87  H    0.103209
    88  C   -0.201578
    89  H    0.099117
    90  H    0.105174
    91  C   -0.201632
    92  H    0.099825
    93  H    0.100132
    94  C   -0.222014
    95  H    0.102751
    96  H    0.102909
    97  C   -0.289704
    98  H    0.101294
    99  H    0.105332
   100  H    0.101223
   101  Br   0.023400
   102  Br   0.022910
 Sum of Mulliken charges =  -0.00000

 Dipole moment (field-independent basis, Debye):
    X=             -0.4062    Y=              0.2495    Z=             -0.1263  Tot=              0.4931
 Quadrupole moment (field-independent basis, Debye-Ang):
   XX=           -281.1121   YY=           -308.8461   ZZ=           -310.1586
   XY=            -14.0367   XZ=              2.4492   YZ=             -1.0162

 Normal termination of Gaussian 16 at Thu Jan 16 17:01:42 2020.
