 Gaussian 16, Revision A.03,
 Gaussian 16:  ES64L-G16RevA.03 25-Dec-2016

 ----------------------------------
 #p opt pop=MKUFF b3lyp/6-311g(d,p)
 ----------------------------------

 ----------------------
 OBT_1m_14sc_Sn_opt.gjf
 ----------------------
 Symbolic Z-matrix:
 Charge =  0 Multiplicity = 1

 SCF Done:  E(RB3LYP) =  -7188.78847047     A.U. after   15 cycles
 SCF Done:  E(RB3LYP) =  -7188.86472960     A.U. after   12 cycles
 SCF Done:  E(RB3LYP) =  -7188.87658139     A.U. after   15 cycles
 SCF Done:  E(RB3LYP) =  -7188.90978971     A.U. after   13 cycles
 SCF Done:  E(RB3LYP) =  -7188.88285686     A.U. after   14 cycles
 SCF Done:  E(RB3LYP) =  -7188.94271366     A.U. after   12 cycles
 SCF Done:  E(RB3LYP) =  -7188.94922190     A.U. after   12 cycles
 SCF Done:  E(RB3LYP) =  -7188.95330237     A.U. after   12 cycles
 SCF Done:  E(RB3LYP) =  -7188.95569222     A.U. after   13 cycles
 SCF Done:  E(RB3LYP) =  -7188.95606493     A.U. after   11 cycles
 SCF Done:  E(RB3LYP) =  -7188.95685935     A.U. after    8 cycles
 SCF Done:  E(RB3LYP) =  -7188.95686000     A.U. after    8 cycles
 SCF Done:  E(RB3LYP) =  -7188.95686032     A.U. after    7 cycles
 SCF Done:  E(RB3LYP) =  -7188.95686061     A.U. after    8 cycles
 SCF Done:  E(RB3LYP) =  -7188.95686069     A.U. after    7 cycles
 SCF Done:  E(RB3LYP) =  -7188.95686076     A.U. after    6 cycles
 SCF Done:  E(RB3LYP) =  -7188.95686082     A.U. after    6 cycles
 SCF Done:  E(RB3LYP) =  -7188.95686086     A.U. after    5 cycles
 SCF Done:  E(RB3LYP) =  -7188.95686089     A.U. after    6 cycles
 SCF Done:  E(RB3LYP) =  -7188.95686092     A.U. after    6 cycles
 Optimization completed.
    -- Stationary point found.

                         Standard orientation:
 ---------------------------------------------------------------------
 Center     Atomic      Atomic             Coordinates (Angstroms)
 Number     Number       Type             X           Y           Z
 ---------------------------------------------------------------------
      1          6           0        0.144027    0.325391   -0.264878
      2          6           0       -1.035774   -0.401218   -0.272297
      3          6           0       -0.858348   -1.814901   -0.298472
      4          6           0        0.463252   -2.150285   -0.311679
      5         16           0        1.519893   -0.777933   -0.294131
      6          8           0       -2.226567    0.256456   -0.262701
      7          1           0       -1.657687   -2.539493   -0.307755
      8          6           0        0.303840    1.757576   -0.248605
      9          6           0        1.483108    2.485123   -0.223747
     10          6           0        1.303546    3.898767   -0.225610
     11          6           0       -0.018478    4.232269   -0.247875
     12         16           0       -1.073688    2.859378   -0.267412
     13          8           0        2.675177    1.829867   -0.199063
     14          1           0        2.101329    4.624876   -0.210413
     15          6           0       -3.434269   -0.514860   -0.212608
     16          1           0       -3.494114   -1.158200   -1.099960
     17          1           0       -3.415903   -1.152672    0.677775
     18          6           0       -4.602331    0.459151   -0.181392
     19          1           0       -4.516900    1.082393    0.714978
     20          1           0       -4.501681    1.128962   -1.040671
     21          6           0       -5.978470   -0.223945   -0.220295
     22          1           0       -6.732904    0.555665   -0.360085
     23          1           0       -6.042774   -0.867646   -1.107593
     24          6           0       -6.322422   -1.048500    1.029551
     25          1           0       -5.578833   -1.842217    1.162113
     26          1           0       -6.242066   -0.406177    1.916339
     27          6           0       -7.716115   -1.697344    0.998679
     28          1           0       -7.797476   -2.321584    0.101115
     29          1           0       -7.799807   -2.381368    1.852161
     30          6           0       -8.885395   -0.703389    1.056772
     31          1           0       -8.729126   -0.032686    1.910875
     32          1           0       -8.883270   -0.065531    0.165096
     33          6           0      -10.269276   -1.358056    1.193856
     34          1           0      -11.010808   -0.571631    1.379558
     35          1           0      -10.278390   -1.998652    2.085485
     36          6           0      -10.719069   -2.177399   -0.022647
     37          1           0      -10.021432   -3.004932   -0.197030
     38          1           0      -10.672393   -1.545309   -0.919571
     39          6           0      -12.136047   -2.745782    0.119178
     40          1           0      -12.184602   -3.371265    1.018850
     41          1           0      -12.839933   -1.921215    0.285230
     42          6           0      -12.585733   -3.563591   -1.094844
     43          1           0      -11.922358   -4.417516   -1.264613
     44          1           0      -12.580250   -2.955852   -2.005155
     45          1           0      -13.599012   -3.952487   -0.962057
     46          6           0        3.882325    2.604504   -0.246084
     47          1           0        3.897144    3.190317   -1.172676
     48          1           0        3.902943    3.297608    0.604592
     49          6           0        5.066706    1.653316   -0.190297
     50          1           0        4.987365    0.949421   -1.026348
     51          1           0        5.967860    2.250535   -0.366397
     52          6           0        5.180791    0.885425    1.133180
     53          1           0        4.232541    0.375041    1.321693
     54          1           0        5.315310    1.602305    1.954163
     55          6           0        6.318771   -0.146069    1.167563
     56          1           0        6.228100   -0.731337    2.090657
     57          1           0        6.177430   -0.855779    0.344314
     58          6           0        7.730104    0.456255    1.108204
     59          1           0        7.876983    0.978949    0.155181
     60          1           0        7.815182    1.220871    1.890714
     61          6           0        8.865563   -0.563266    1.292446
     62          1           0        9.812708   -0.018946    1.390299
     63          1           0        8.722302   -1.094203    2.242647
     64          6           0        9.003057   -1.585584    0.156672
     65          1           0        8.084664   -2.177873    0.072838
     66          1           0        9.109083   -1.050756   -0.796596
     67          6           0       10.192380   -2.536089    0.336606
     68          1           0       10.090686   -3.066333    1.292535
     69          1           0       11.117299   -1.949488    0.412959
     70          6           0       10.337735   -3.560884   -0.794115
     71          1           0        9.414488   -4.148119   -0.869052
     72          1           0       10.438520   -3.031480   -1.749407
     73          6           0       11.528530   -4.505384   -0.606846
     74          1           0       11.438849   -5.075088    0.323442
     75          1           0       11.603602   -5.222536   -1.428869
     76          1           0       12.470859   -3.950185   -0.563654
     77         35           0       -0.729266    5.984407   -0.253361
     78         35           0        1.172589   -3.902678   -0.341537
 ---------------------------------------------------------------------

 The electronic state is 1-A.
 Alpha  occ. eigenvalues -- -482.84126-482.84060 -88.88317 -88.88249 -62.49399
 Alpha  occ. eigenvalues --  -62.49333 -56.31449 -56.31383 -56.31035 -56.31034
 Alpha  occ. eigenvalues --  -56.30969 -56.30968 -19.15990 -19.15962 -10.24711
 Alpha  occ. eigenvalues --  -10.24639 -10.24155 -10.24135 -10.23540 -10.23482
 Alpha  occ. eigenvalues --  -10.21210 -10.21162 -10.18753 -10.18688 -10.17619
 Alpha  occ. eigenvalues --  -10.17578 -10.17475 -10.17124 -10.16775 -10.16601
 Alpha  occ. eigenvalues --  -10.16578 -10.16519 -10.16496 -10.16402 -10.16376
 Alpha  occ. eigenvalues --  -10.16339 -10.16289 -10.16283 -10.16128 -10.16104
 Alpha  occ. eigenvalues --  -10.15800 -10.15592  -8.70362  -8.70296  -7.96874
 Alpha  occ. eigenvalues --   -7.96804  -6.53552  -6.53486  -6.52179  -6.52169
 Alpha  occ. eigenvalues --   -6.52112  -6.52104  -5.93210  -5.93140  -5.92814
 Alpha  occ. eigenvalues --   -5.92743  -5.92397  -5.92328  -2.64638  -2.64572
 Alpha  occ. eigenvalues --   -2.64241  -2.64231  -2.64175  -2.64165  -2.63142
 Alpha  occ. eigenvalues --   -2.63141  -2.63076  -2.63076  -1.07739  -1.07650
 Alpha  occ. eigenvalues --   -0.90411  -0.89117  -0.82725  -0.82296  -0.81792
 Alpha  occ. eigenvalues --   -0.80986  -0.80423  -0.80101  -0.78082  -0.77862
 Alpha  occ. eigenvalues --   -0.76014  -0.75259  -0.74761  -0.73566  -0.72377
 Alpha  occ. eigenvalues --   -0.70984  -0.69737  -0.68151  -0.66313  -0.65012
 Alpha  occ. eigenvalues --   -0.62491  -0.62353  -0.59827  -0.59741  -0.59215
 Alpha  occ. eigenvalues --   -0.58519  -0.57868  -0.57138  -0.56444  -0.56229
 Alpha  occ. eigenvalues --   -0.55850  -0.54660  -0.54386  -0.49922  -0.49800
 Alpha  occ. eigenvalues --   -0.48867  -0.47982  -0.47903  -0.47353  -0.46627
 Alpha  occ. eigenvalues --   -0.46245  -0.45776  -0.45455  -0.44959  -0.44165
 Alpha  occ. eigenvalues --   -0.43884  -0.43643  -0.43259  -0.42892  -0.42817
 Alpha  occ. eigenvalues --   -0.42119  -0.41783  -0.41554  -0.40959  -0.40269
 Alpha  occ. eigenvalues --   -0.39833  -0.39707  -0.39398  -0.39270  -0.38891
 Alpha  occ. eigenvalues --   -0.38548  -0.37837  -0.37653  -0.37255  -0.37044
 Alpha  occ. eigenvalues --   -0.36672  -0.36192  -0.35677  -0.35385  -0.34923
 Alpha  occ. eigenvalues --   -0.34568  -0.34455  -0.34156  -0.33930  -0.33831
 Alpha  occ. eigenvalues --   -0.33657  -0.33527  -0.33261  -0.33049  -0.32789
 Alpha  occ. eigenvalues --   -0.32357  -0.31992  -0.31864  -0.31547  -0.31425
 Alpha  occ. eigenvalues --   -0.31293  -0.31056  -0.30810  -0.30209  -0.30192
 Alpha  occ. eigenvalues --   -0.29792  -0.26518  -0.24715  -0.24266  -0.18558
 Alpha virt. eigenvalues --   -0.04914  -0.01871  -0.01345  -0.00306   0.01642
 Alpha virt. eigenvalues --    0.02149   0.03411   0.04074   0.04295   0.04387
 Alpha virt. eigenvalues --    0.04698   0.05099   0.05194   0.05443   0.05584

 Mulliken charges:
               1
     1  C   -0.248004
     2  C    0.251535
     3  C   -0.034765
     4  C   -0.370697
     5  S    0.396994
     6  O   -0.382156
     7  H    0.119024
     8  C   -0.240996
     9  C    0.250537
    10  C   -0.035149
    11  C   -0.361837
    12  S    0.383530
    13  O   -0.384963
    14  H    0.119497
    15  C   -0.015204
    16  H    0.110258
    17  H    0.117272
    18  C   -0.223813
    19  H    0.122480
    20  H    0.127376
    21  C   -0.224396
    22  H    0.118334
    23  H    0.104644
    24  C   -0.211168
    25  H    0.103570
    26  H    0.106430
    27  C   -0.206806
    28  H    0.106927
    29  H    0.105472
    30  C   -0.207692
    31  H    0.104485
    32  H    0.105413
    33  C   -0.205915
    34  H    0.104006
    35  H    0.101488
    36  C   -0.205117
    37  H    0.104913
    38  H    0.099869
    39  C   -0.221609
    40  H    0.103683
    41  H    0.103494
    42  C   -0.289568
    43  H    0.101032
    44  H    0.101516
    45  H    0.106325
    46  C   -0.029018
    47  H    0.120421
    48  H    0.111781
    49  C   -0.220990
    50  H    0.122506
    51  H    0.111351
    52  C   -0.214139
    53  H    0.136515
    54  H    0.097872
    55  C   -0.212536
    56  H    0.106928
    57  H    0.111919
    58  C   -0.209034
    59  H    0.102891
    60  H    0.102851
    61  C   -0.206425
    62  H    0.103039
    63  H    0.102225
    64  C   -0.202301
    65  H    0.107002
    66  H    0.099015
    67  C   -0.201942
    68  H    0.100714
    69  H    0.099493
    70  C   -0.222209
    71  H    0.103996
    72  H    0.102954
    73  C   -0.289771
    74  H    0.101444
    75  H    0.105794
    76  H    0.101021
    77  Br   0.023419
    78  Br   0.022964
 Sum of Mulliken charges =  -0.00000

 Dipole moment (field-independent basis, Debye):
    X=             -0.4248    Y=             -0.2019    Z=              0.2019  Tot=              0.5119
 Quadrupole moment (field-independent basis, Debye-Ang):
   XX=           -226.2049   YY=           -254.0457   ZZ=           -257.0758
   XY=             13.2771   XZ=             -1.2372   YZ=             -0.7013

 ESP charges:
               1
     1  C   -0.173775
     2  C    0.391064
     3  C   -0.256727
     4  C   -0.134753
     5  S    0.077945
     6  O   -0.365503
     7  H    0.150895
     8  C   -0.117954
     9  C    0.291719
    10  C   -0.232115
    11  C   -0.117757
    12  S    0.064654
    13  O   -0.207433
    14  H    0.148592
    15  C    0.257419
    16  H    0.023064
    17  H    0.022729
    18  C   -0.147002
    19  H    0.064716
    20  H    0.062426
    21  C   -0.060053
    22  H    0.047690
    23  H    0.033051
    24  C   -0.143053
    25  H    0.040047
    26  H    0.059614
    27  C   -0.087407
    28  H    0.041781
    29  H    0.049728
    30  C    0.052792
    31  H    0.019022
    32  H    0.015154
    33  C   -0.222571
    34  H    0.047239
    35  H    0.050372
    36  C    0.048769
    37  H   -0.003322
    38  H    0.007350
    39  C    0.162685
    40  H   -0.022274
    41  H   -0.018973
    42  C   -0.334473
    43  H    0.074791
    44  H    0.070685
    45  H    0.082522
    46  C   -0.008205
    47  H    0.070354
    48  H    0.074618
    49  C   -0.038405
    50  H    0.041234
    51  H    0.026477
    52  C   -0.057328
    53  H    0.013870
    54  H    0.035296
    55  C   -0.053243
    56  H    0.038559
    57  H    0.040632
    58  C   -0.034348
    59  H    0.027778
    60  H    0.019363
    61  C   -0.070743
    62  H    0.020391
    63  H    0.023548
    64  C   -0.004850
    65  H   -0.001379
    66  H    0.007537
    67  C   -0.050332
    68  H    0.012976
    69  H    0.016327
    70  C    0.198398
    71  H   -0.027483
    72  H   -0.036056
    73  C   -0.301012
    74  H    0.064725
    75  H    0.069785
    76  H    0.063846
    77  Br  -0.001134
    78  Br   0.005433
 Sum of ESP charges =   0.00000

 Normal termination of Gaussian 16 at Mon Jan 20 21:26:51 2020.
