 Gaussian 16, Revision A.03,
 Gaussian 16:  ES64L-G16RevA.03 25-Dec-2016

 --------------------------
 #p pop=MKUFF b3lyp/lanl2dz
 --------------------------

 ----------------------
 OBT_1m_14sc_Sn_pop.gjf
 ----------------------
 Symbolic Z-matrix:
 Charge =  0 Multiplicity = 1

                         Standard orientation:
 ---------------------------------------------------------------------
 Center     Atomic      Atomic             Coordinates (Angstroms)
 Number     Number       Type             X           Y           Z
 ---------------------------------------------------------------------
      1          6           0       -0.076238    0.756512   -0.232181
      2          6           0       -1.372326    1.166221    0.038483
      3          6           0       -1.547419    2.578875    0.059598
      4          6           0       -0.384555    3.244296   -0.195003
      5         16           0        0.941989    2.171371   -0.464588
      6          8           0       -2.342832    0.232611    0.254253
      7          1           0       -2.487657    3.074152    0.252673
      8          6           0        0.431549   -0.592471   -0.324695
      9          6           0        1.727637   -1.002180   -0.595359
     10          6           0        1.903697   -2.414681   -0.616682
     11          6           0        0.739867   -3.080255   -0.361873
     12         16           0       -0.586734   -2.008329   -0.093287
     13          8           0        2.697935   -0.068581   -0.812107
     14          1           0        2.842913   -2.911111   -0.810548
     15          6           0       -3.677438    0.672614    0.519060
     16          1           0       -3.685425    1.275597    1.402942
     17          1           0       -4.033927    1.248859   -0.309045
     18          6           0       -4.590134   -0.550743    0.723960
     19          1           0       -4.587545   -1.150114   -0.162407
     20          1           0       -4.229651   -1.130692    1.547739
     21          6           0       -6.025378   -0.076761    1.018940
     22          1           0       -6.659793   -0.926771    1.160018
     23          1           0       -6.028173    0.521532    1.906035
     24          6           0       -6.543518    0.759502   -0.165878
     25          1           0       -6.285181    1.787137   -0.017119
     26          1           0       -6.098031    0.407424   -1.072786
     27          6           0       -8.074637    0.623469   -0.259529
     28          1           0       -8.515618    0.907046    0.673219
     29          1           0       -8.442480    1.260772   -1.036341
     30          6           0       -8.441653   -0.837942   -0.577611
     31          1           0       -7.783895   -1.214595   -1.332851
     32          1           0       -8.344728   -1.430846    0.307810
     33          6           0       -9.894846   -0.903916   -1.083058
     34          1           0      -10.176889   -1.926209   -1.225424
     35          1           0       -9.973373   -0.379514   -2.012432
     36          6           0      -10.829088   -0.253298   -0.046000
     37          1           0      -10.787011    0.811162   -0.146265
     38          1           0      -10.517212   -0.531364    0.939045
     39          6           0      -12.272755   -0.734501   -0.282363
     40          1           0      -12.557604   -0.525285   -1.292308
     41          1           0      -12.330758   -1.788345   -0.106439
     42          6           0      -13.222972   -0.000073    0.681640
     43          1           0      -13.169829    1.053280    0.501299
     44          1           0      -12.934133   -0.204049    1.691524
     45          6           0      -14.665385   -0.488112    0.451722
     46          1           0      -14.720212   -1.540054    0.639640
     47          1           0      -14.951484   -0.291206   -0.560343
     48          6           0      -15.617119    0.254460    1.407959
     49          1           0      -15.563287    1.306291    1.219135
     50          1           0      -15.330204    0.058629    2.420001
     51          6           0      -17.059274   -0.234968    1.179376
     52          1           0      -17.720999    0.283420    1.841413
     53          1           0      -17.344997   -0.042215    0.166405
     54          6           0      -17.137810   -1.747906    1.455873
     55          1           0      -16.838248   -2.286370    0.581105
     56          1           0      -16.486890   -1.996327    2.267963
     57          1           0      -18.142858   -2.012216    1.710662
     58          6           0        3.550391   -0.875722    0.004436
     59          1           0        3.012938   -1.197783    0.871800
     60          1           0        3.873326   -1.730221   -0.552738
     61          6           0        4.777167   -0.051581    0.437349
     62          1           0        4.532126    0.523470    1.305779
     63          1           0        5.588359   -0.711568    0.663813
     64          6           0        5.189111    0.894803   -0.705569
     65          1           0        4.694588    1.835985   -0.585054
     66          1           0        4.910424    0.463065   -1.644097
     67          6           0        6.713898    1.107969   -0.671156
     68          1           0        6.988211    1.840380   -1.401380
     69          1           0        7.004747    1.447271    0.301048
     70          6           0        7.425273   -0.221330   -0.985016
     71          1           0        7.385403   -0.858592   -0.126408
     72          1           0        6.938023   -0.700946   -1.808094
     73          6           0        8.895307    0.056838   -1.350013
     74          1           0        9.410582   -0.870915   -1.486635
     75          1           0        8.936563    0.624530   -2.256062
     76          6           0        9.564351    0.853227   -0.214344
     77          1           0        9.295683    1.885689   -0.296431
     78          1           0        9.234970    0.472963    0.730012
     79          6           0       11.094140    0.710937   -0.319697
     80          1           0       11.414835    1.019149   -1.292867
     81          1           0       11.369115   -0.310803   -0.160522
     82          6           0       11.766610    1.595594    0.746496
     83          1           0       11.502038    2.618833    0.579515
     84          1           0       11.435931    1.295821    1.718960
     85          6           0       13.295796    1.438999    0.653392
     86          1           0       13.625201    1.728444   -0.322628
     87          1           0       13.763441    2.061951    1.386972
     88          6           0       13.677826   -0.030764    0.909221
     89          1           0       13.039650   -0.438810    1.664952
     90          1           0       13.563704   -0.591511    0.005097
     91          6           0       15.142604   -0.106190    1.378623
     92          1           0       15.241843    0.393765    2.319418
     93          1           0       15.773729    0.366387    0.655262
     94          6           0       15.556200   -1.581338    1.535082
     95          1           0       15.443807   -2.084634    0.597553
     96          1           0       14.934066   -2.050328    2.268496
     97          6           0       17.026965   -1.657118    1.985313
     98          1           0       17.139872   -1.151526    2.921544
     99          1           0       17.313550   -2.682002    2.096590
    100          1           0       17.649367   -1.190479    1.250627
    101         50           0       -0.419891    5.383504   -0.212870
    102          6           0       -1.641811    6.264397   -1.774977
    103          1           0       -2.671747    6.222796   -1.488238
    104          1           0       -1.353980    7.285087   -1.920329
    105          1           0       -1.502783    5.721152   -2.685751
    106          6           0        1.677113    5.714652   -0.662106
    107          1           0        2.279999    5.282784    0.109319
    108          1           0        1.917405    5.259369   -1.600504
    109          1           0        1.868757    6.766227   -0.716831
    110          6           0       -0.905437    6.303855    1.691452
    111          1           0       -0.635605    7.339474    1.666305
    112          1           0       -1.956280    6.213700    1.873791
    113          1           0       -0.364719    5.813673    2.472658
    114         50           0        0.647910   -5.218265   -0.319024
    115          6           0       -0.268288   -6.226396    1.370549
    116          1           0       -1.331748   -6.220107    1.255937
    117          1           0        0.079591   -7.237474    1.413463
    118          1           0       -0.003599   -5.719247    2.274695
    119          6           0       -0.662986   -5.985518   -1.869030
    120          1           0       -0.490247   -7.034044   -1.995005
    121          1           0       -1.681681   -5.822913   -1.587002
    122          1           0       -0.462272   -5.477835   -2.789534
    123          6           0        2.539360   -6.207023   -0.710592
    124          1           0        2.903674   -5.912201   -1.671607
    125          1           0        3.248627   -5.930013    0.041411
    126          1           0        2.397073   -7.267448   -0.692833
 ---------------------------------------------------------------------

 SCF Done:  E(RB3LYP) =  -1824.40791412     A.U. after   15 cycles

 The electronic state is 1-A.
 Alpha  occ. eigenvalues --  -19.16439 -19.15840 -10.24780 -10.24259 -10.23606
 Alpha  occ. eigenvalues --  -10.22385 -10.21466 -10.21259 -10.19431 -10.19131
 Alpha  occ. eigenvalues --  -10.19111 -10.18866 -10.17610 -10.17300 -10.16984
 Alpha  occ. eigenvalues --  -10.16670 -10.16499 -10.16457 -10.16313 -10.16305
 Alpha  occ. eigenvalues --  -10.16256 -10.16202 -10.16196 -10.16166 -10.16128
 Alpha  occ. eigenvalues --  -10.16046 -10.16000 -10.15933 -10.15908 -10.15874
 Alpha  occ. eigenvalues --  -10.15861 -10.15854 -10.15837 -10.15798 -10.15753
 Alpha  occ. eigenvalues --  -10.15732 -10.15671 -10.15640 -10.15540 -10.15494
 Alpha  occ. eigenvalues --  -10.15466 -10.14805 -10.14115 -10.13758  -1.10474
 Alpha  occ. eigenvalues --   -1.06936  -0.89680  -0.88086  -0.82369  -0.81428
 Alpha  occ. eigenvalues --   -0.81053  -0.80471  -0.79693  -0.78772  -0.77644
 Alpha  occ. eigenvalues --   -0.77259  -0.76464  -0.75060  -0.73854  -0.73692
 Alpha  occ. eigenvalues --   -0.72799  -0.71428  -0.70875  -0.70074  -0.69674
 Alpha  occ. eigenvalues --   -0.69218  -0.68377  -0.68115  -0.67722  -0.67370
 Alpha  occ. eigenvalues --   -0.67027  -0.66604  -0.65836  -0.64558  -0.62874
 Alpha  occ. eigenvalues --   -0.62658  -0.61059  -0.60426  -0.58974  -0.58891
 Alpha  occ. eigenvalues --   -0.58681  -0.58153  -0.57779  -0.56796  -0.56256
 Alpha  occ. eigenvalues --   -0.56143  -0.55896  -0.55177  -0.54621  -0.53814
 Alpha  occ. eigenvalues --   -0.52944  -0.50046  -0.49389  -0.48864  -0.48755
 Alpha  occ. eigenvalues --   -0.48168  -0.47378  -0.47264  -0.46486  -0.45702
 Alpha  occ. eigenvalues --   -0.45345  -0.44896  -0.44617  -0.44577  -0.44364
 Alpha  occ. eigenvalues --   -0.43752  -0.43456  -0.43235  -0.42925  -0.42703
 Alpha  occ. eigenvalues --   -0.42217  -0.41651  -0.41338  -0.41198  -0.41071
 Alpha  occ. eigenvalues --   -0.40959  -0.40877  -0.40815  -0.40637  -0.40449
 Alpha  occ. eigenvalues --   -0.40354  -0.40196  -0.40170  -0.39963  -0.39774
 Alpha  occ. eigenvalues --   -0.39530  -0.39379  -0.39122  -0.38889  -0.38780
 Alpha  occ. eigenvalues --   -0.38601  -0.38495  -0.38391  -0.38198  -0.38164
 Alpha  occ. eigenvalues --   -0.37979  -0.37639  -0.37173  -0.36769  -0.36633
 Alpha  occ. eigenvalues --   -0.36437  -0.36165  -0.35959  -0.35522  -0.35488
 Alpha  occ. eigenvalues --   -0.34747  -0.34461  -0.34135  -0.33977  -0.33775
 Alpha  occ. eigenvalues --   -0.33576  -0.33268  -0.33033  -0.32801  -0.32719
 Alpha  occ. eigenvalues --   -0.32542  -0.32471  -0.32379  -0.32120  -0.32031
 Alpha  occ. eigenvalues --   -0.31831  -0.31659  -0.31497  -0.31318  -0.31289
 Alpha  occ. eigenvalues --   -0.30872  -0.30673  -0.30488  -0.30266  -0.29735
 Alpha  occ. eigenvalues --   -0.28935  -0.28789  -0.28616  -0.27963  -0.27275
 Alpha  occ. eigenvalues --   -0.27220  -0.27202  -0.26880  -0.26267  -0.25324
 Alpha  occ. eigenvalues --   -0.23313  -0.22982  -0.18184
 Alpha virt. eigenvalues --   -0.03594   0.00817   0.01763   0.03124   0.04164
 Alpha virt. eigenvalues --    0.05504   0.05676   0.06072   0.06817   0.07585
 Alpha virt. eigenvalues --    0.07905   0.08197   0.08716   0.09214   0.10742

 Mulliken charges:
               1
     1  C   -0.319203
     2  C    0.354547
     3  C   -0.215958
     4  C   -0.594757
     5  S    0.306882
     6  O   -0.305391
     7  H    0.238397
     8  C   -0.248860
     9  C    0.266732
    10  C   -0.144687
    11  C   -0.640788
    12  S    0.309862
    13  O   -0.247658
    14  H    0.228350
    15  C   -0.253193
    16  H    0.189269
    17  H    0.232383
    18  C   -0.407433
    19  H    0.204325
    20  H    0.213467
    21  C   -0.357931
    22  H    0.206392
    23  H    0.187104
    24  C   -0.403843
    25  H    0.197235
    26  H    0.181042
    27  C   -0.379003
    28  H    0.201449
    29  H    0.192329
    30  C   -0.379209
    31  H    0.193289
    32  H    0.184378
    33  C   -0.402313
    34  H    0.190457
    35  H    0.190285
    36  C   -0.350976
    37  H    0.202544
    38  H    0.183315
    39  C   -0.395132
    40  H    0.191374
    41  H    0.188629
    42  C   -0.370570
    43  H    0.186202
    44  H    0.185955
    45  C   -0.366610
    46  H    0.212393
    47  H    0.185834
    48  C   -0.381807
    49  H    0.193355
    50  H    0.188295
    51  C   -0.363679
    52  H    0.194221
    53  H    0.192019
    54  C   -0.668777
    55  H    0.209514
    56  H    0.199448
    57  H    0.204671
    58  C   -0.280819
    59  H    0.232241
    60  H    0.186355
    61  C   -0.410618
    62  H    0.198373
    63  H    0.188361
    64  C   -0.394024
    65  H    0.209817
    66  H    0.200993
    67  C   -0.367369
    68  H    0.193693
    69  H    0.201572
    70  C   -0.381592
    71  H    0.180713
    72  H    0.191169
    73  C   -0.402710
    74  H    0.186063
    75  H    0.190949
    76  C   -0.344168
    77  H    0.199990
    78  H    0.179721
    79  C   -0.384769
    80  H    0.186606
    81  H    0.210563
    82  C   -0.399975
    83  H    0.194639
    84  H    0.183851
    85  C   -0.386600
    86  H    0.190031
    87  H    0.192310
    88  C   -0.356973
    89  H    0.180788
    90  H    0.197786
    91  C   -0.356810
    92  H    0.181169
    93  H    0.184868
    94  C   -0.343424
    95  H    0.186635
    96  H    0.186201
    97  C   -0.665224
    98  H    0.199161
    99  H    0.205381
   100  H    0.199401
   101  Sn   1.191229
   102  C   -0.978737
   103  H    0.227471
   104  H    0.236745
   105  H    0.242617
   106  C   -1.006500
   107  H    0.235977
   108  H    0.238957
   109  H    0.221141
   110  C   -0.978568
   111  H    0.236429
   112  H    0.227592
   113  H    0.241195
   114  Sn   1.207611
   115  C   -0.980336
   116  H    0.234263
   117  H    0.231941
   118  H    0.226566
   119  C   -0.973734
   120  H    0.223786
   121  H    0.226342
   122  H    0.226805
   123  C   -0.998191
   124  H    0.237113
   125  H    0.229098
   126  H    0.240700
 Sum of Mulliken charges =  -0.00000

 Dipole moment (field-independent basis, Debye):
    X=             -1.8058    Y=              1.0047    Z=              1.6314  Tot=              2.6328
 Quadrupole moment (field-independent basis, Debye-Ang):
   XX=           -322.1710   YY=           -326.5502   ZZ=           -339.6846
   XY=            -14.9991   XZ=             -1.0184   YZ=             -1.0345

 ESP charges:
               1
     1  C   -0.127761
     2  C    0.547222
     3  C   -0.447982
     4  C   -0.296754
     5  S    0.003830
     6  O   -0.570464
     7  H    0.178404
     8  C   -0.074529
     9  C    0.622656
    10  C   -0.623273
    11  C   -0.195411
    12  S   -0.076870
    13  O   -0.513076
    14  H    0.256099
    15  C    0.522258
    16  H   -0.013875
    17  H   -0.017314
    18  C   -0.361937
    19  H    0.123676
    20  H    0.108566
    21  C   -0.048246
    22  H    0.045020
    23  H    0.053524
    24  C   -0.176407
    25  H    0.032280
    26  H    0.075327
    27  C    0.026156
    28  H   -0.005133
    29  H    0.031220
    30  C   -0.100367
    31  H    0.054505
    32  H    0.069223
    33  C   -0.239691
    34  H    0.036650
    35  H    0.073669
    36  C    0.279738
    37  H   -0.048446
    38  H   -0.023925
    39  C   -0.131728
    40  H    0.020084
    41  H    0.041673
    42  C   -0.254100
    43  H    0.066265
    44  H    0.042209
    45  C    0.324787
    46  H   -0.046566
    47  H   -0.033520
    48  C   -0.229822
    49  H    0.029244
    50  H    0.066861
    51  C    0.083846
    52  H    0.011881
    53  H    0.007334
    54  C   -0.349441
    55  H    0.072964
    56  H    0.101978
    57  H    0.084816
    58  C    0.251222
    59  H    0.021139
    60  H    0.045999
    61  C   -0.122649
    62  H    0.087833
    63  H   -0.020373
    64  C   -0.242505
    65  H    0.085843
    66  H    0.104165
    67  C    0.048468
    68  H    0.026339
    69  H    0.007673
    70  C   -0.045318
    71  H    0.081097
    72  H    0.037613
    73  C   -0.285130
    74  H    0.054758
    75  H    0.091928
    76  C    0.034862
    77  H   -0.002716
    78  H    0.027059
    79  C    0.089867
    80  H    0.004504
    81  H   -0.022829
    82  C   -0.161708
    83  H    0.032623
    84  H    0.032273
    85  C    0.046322
    86  H    0.005009
    87  H   -0.019232
    88  C    0.010044
    89  H    0.020049
    90  H   -0.002717
    91  C   -0.127219
    92  H    0.046515
    93  H    0.020195
    94  C    0.262923
    95  H   -0.035855
    96  H   -0.050515
    97  C   -0.416816
    98  H    0.093790
    99  H    0.090799
   100  H    0.098080
   101  Sn   1.124447
   102  C   -0.813741
   103  H    0.181048
   104  H    0.190065
   105  H    0.185074
   106  C   -0.814670
   107  H    0.189070
   108  H    0.184548
   109  H    0.162668
   110  C   -0.819696
   111  H    0.190905
   112  H    0.183870
   113  H    0.183828
   114  Sn   1.104005
   115  C   -0.769655
   116  H    0.180823
   117  H    0.174800
   118  H    0.147237
   119  C   -0.721229
   120  H    0.152811
   121  H    0.154909
   122  H    0.136324
   123  C   -0.861277
   124  H    0.196766
   125  H    0.176748
   126  H    0.209589
 Sum of ESP charges =  -0.00000

 Normal termination of Gaussian 16 at Fri Jan 17 13:02:32 2020.
