 Gaussian 16, Revision A.03,
 Gaussian 16:  ES64L-G16RevA.03 25-Dec-2016

 -------------------------------
 #p pop=ChelpG b3lyp/6-311g(d,p)
 -------------------------------

 ------------------
 O2G_2m_7sc_pop.gjf
 ------------------
 Symbolic Z-matrix:
 Charge =  0 Multiplicity = 1

                         Standard orientation:
 ---------------------------------------------------------------------
 Center     Atomic      Atomic             Coordinates (Angstroms)
 Number     Number       Type             X           Y           Z
 ---------------------------------------------------------------------
      1          6           0       -0.382033    4.613410    0.000120
      2          6           0       -1.673402    5.123077    0.000311
      3          6           0       -1.742046    6.544136    0.000393
      4          6           0       -0.503723    7.118425    0.000260
      5         16           0        0.765989    5.947851    0.000083
      6          8           0       -2.735076    4.267059    0.000394
      7          1           0       -2.661542    7.110934    0.000530
      8          6           0        0.028464    3.234194   -0.000019
      9          6           0        1.319259    2.722403   -0.000212
     10          6           0        1.391921    1.310182   -0.000308
     11          6           0        0.153745    0.703364   -0.000191
     12         16           0       -1.121962    1.901940    0.000037
     13          8           0        2.378704    3.579610   -0.000292
     14          1           0        2.317908    0.753823   -0.000463
     15          6           0       -4.047042    4.822179    0.000522
     16          1           0       -4.206333    5.440147   -0.890022
     17          1           0       -4.206195    5.440066    0.891147
     18          6           0        3.692209    3.026518   -0.000459
     19          1           0        3.851785    2.408776    0.890054
     20          1           0        3.851602    2.408881   -0.891078
     21          1           0       -0.261673    8.169729    0.000273
     22          6           0       -0.028464   -3.234194   -0.000415
     23          6           0       -1.319259   -2.722404   -0.000292
     24          6           0       -1.391921   -1.310182   -0.000188
     25          6           0       -0.153745   -0.703364   -0.000236
     26         16           0        1.121962   -1.901941   -0.000349
     27          8           0       -2.378703   -3.579610   -0.000292
     28          1           0       -2.317908   -0.753823   -0.000106
     29          6           0        0.382033   -4.613410   -0.000551
     30          6           0        1.673402   -5.123077   -0.000647
     31          6           0        1.742046   -6.544136   -0.000752
     32          6           0        0.503723   -7.118425   -0.000738
     33         16           0       -0.765989   -5.947851   -0.000637
     34          8           0        2.735076   -4.267059   -0.000695
     35          1           0        2.661542   -7.110934   -0.000834
     36          6           0       -3.692209   -3.026518   -0.000281
     37          1           0       -3.851679   -2.408780   -0.890816
     38          1           0       -3.851708   -2.408877    0.890316
     39          6           0        4.047042   -4.822179   -0.000029
     40          1           0        4.205850   -5.440003    0.890699
     41          1           0        4.206677   -5.440209   -0.890470
     42          1           0        0.261673   -8.169729   -0.000796
     43          6           0       -4.665978   -4.191590   -0.000355
     44          1           0       -4.501957   -4.815961   -0.889579
     45          1           0       -4.501943   -4.816080    0.888784
     46          6           0       -5.022202    3.658136    0.000547
     47          1           0       -4.858552    3.033848   -0.888802
     48          1           0       -4.858399    3.033758    0.889804
     49          6           0        4.665978    4.191590   -0.000491
     50          1           0        4.501861    4.816072   -0.889620
     51          1           0        4.502039    4.815970    0.888743
     52          6           0        5.022202   -3.658136    0.000246
     53          1           0        4.858737   -3.033828   -0.889124
     54          1           0        4.858214   -3.033777    0.889482
     55          8           0       -6.322340    4.214821    0.000687
     56          8           0       -5.965908   -3.634851   -0.000308
     57          8           0        5.965908    3.634851   -0.000653
     58          8           0        6.322340   -4.214821    0.000649
     59          6           0       -7.353263    3.242457    0.000720
     60          1           0       -7.287137    2.599770   -0.888170
     61          1           0       -7.286986    2.599671    0.889527
     62          6           0       -6.997304   -4.606751   -0.000377
     63          1           0       -6.931241   -5.249442   -0.889293
     64          1           0       -6.931230   -5.249580    0.888438
     65          6           0        7.353263   -3.242457    0.001031
     66          1           0        7.287349   -2.599675   -0.887806
     67          1           0        7.286774   -2.599765    0.889890
     68          6           0        6.997304    4.606751   -0.000704
     69          1           0        6.931325    5.249464    0.888202
     70          1           0        6.931147    5.249559   -0.889528
     71          6           0       -8.679718    3.981339    0.000873
     72          1           0       -8.743447    4.626372   -0.887962
     73          1           0       -8.743298    4.626271    0.889792
     74          6           0       -8.323641   -3.867687   -0.000311
     75          1           0       -8.387487   -3.222699    0.888485
     76          1           0       -8.387498   -3.222561   -0.889006
     77          6           0        8.679718   -3.981338    0.001425
     78          1           0        8.743667   -4.626270   -0.887468
     79          1           0        8.743078   -4.626373    0.890286
     80          6           0        8.323641    3.867687   -0.000876
     81          1           0        8.387581    3.222582    0.887828
     82          1           0        8.387403    3.222678   -0.889663
     83          8           0       -9.707122    3.010488    0.000904
     84          8           0       -9.350448   -4.839144   -0.000382
     85          8           0        9.707121   -3.010488    0.001822
     86          8           0        9.350448    4.839144   -0.000927
     87          6           0      -11.001072    3.577915    0.001038
     88          1           0      -11.170847    4.197727   -0.891153
     89          1           0      -11.715107    2.753914    0.001029
     90          1           0      -11.170720    4.197597    0.893343
     91          6           0      -10.644852   -4.272641   -0.000342
     92          1           0      -11.358076   -5.097343   -0.000427
     93          1           0      -10.814866   -3.652955    0.891866
     94          1           0      -10.814846   -3.652788   -0.892437
     95          6           0       11.001072   -3.577915    0.002222
     96          1           0       11.171082   -4.197611   -0.890004
     97          1           0       11.715106   -2.753913    0.002507
     98          1           0       11.170485   -4.197711    0.894492
     99          6           0       10.644853    4.272641   -0.001086
    100          1           0       10.814768    3.652919   -0.893288
    101          1           0       11.358076    5.097343   -0.001113
    102          1           0       10.814945    3.652824    0.891015
 ---------------------------------------------------------------------

 SCF Done:  E(RB3LYP) =  -3897.87565065     A.U. after   14 cycles

 The electronic state is 1-A.
 Alpha  occ. eigenvalues --  -88.87024 -88.87024 -88.86863 -88.86863 -19.15681
 Alpha  occ. eigenvalues --  -19.15681 -19.15632 -19.15632 -19.13072 -19.13072
 Alpha  occ. eigenvalues --  -19.12900 -19.12900 -19.12478 -19.12478 -19.12237
 Alpha  occ. eigenvalues --  -19.12237 -10.23322 -10.23322 -10.23251 -10.23251
 Alpha  occ. eigenvalues --  -10.23248 -10.23248 -10.23128 -10.23128 -10.22522
 Alpha  occ. eigenvalues --  -10.22522 -10.22371 -10.22371 -10.22088 -10.22088
 Alpha  occ. eigenvalues --  -10.21912 -10.21912 -10.21899 -10.21899 -10.21676
 Alpha  occ. eigenvalues --  -10.21676 -10.21615 -10.21615 -10.21366 -10.21366
 Alpha  occ. eigenvalues --  -10.20885 -10.20847 -10.20444 -10.20444 -10.20360
 Alpha  occ. eigenvalues --  -10.20360 -10.19448 -10.19448 -10.17548 -10.17548
 Alpha  occ. eigenvalues --  -10.17390 -10.17390  -7.95606  -7.95606  -7.95456
 Alpha  occ. eigenvalues --   -7.95456  -5.91918  -5.91918  -5.91785  -5.91785
 Alpha  occ. eigenvalues --   -5.91530  -5.91530  -5.91400  -5.91400  -5.91175
 Alpha  occ. eigenvalues --   -5.91175  -5.90985  -5.90985  -1.07551  -1.07551
 Alpha  occ. eigenvalues --   -1.07480  -1.07480  -1.04977  -1.04977  -1.04795
 Alpha  occ. eigenvalues --   -1.04795  -1.03913  -1.03913  -1.03689  -1.03689
 Alpha  occ. eigenvalues --   -0.89580  -0.88614  -0.87675  -0.86442  -0.79917
 Alpha  occ. eigenvalues --   -0.79432  -0.79427  -0.79094  -0.77910  -0.76398
 Alpha  occ. eigenvalues --   -0.75631  -0.75396  -0.74949  -0.74737  -0.72729
 Alpha  occ. eigenvalues --   -0.72437  -0.71681  -0.71444  -0.70608  -0.69049
 Alpha  occ. eigenvalues --   -0.67435  -0.67409  -0.67319  -0.66251  -0.63705
 Alpha  occ. eigenvalues --   -0.62839  -0.62777  -0.62482  -0.61440  -0.61407
 Alpha  occ. eigenvalues --   -0.61225  -0.61201  -0.60918  -0.59304  -0.57862
 Alpha  occ. eigenvalues --   -0.56824  -0.56096  -0.55912  -0.55776  -0.53780
 Alpha  occ. eigenvalues --   -0.53764  -0.52878  -0.51494  -0.51494  -0.51336
 Alpha  occ. eigenvalues --   -0.51333  -0.50745  -0.50644  -0.50443  -0.50397
 Alpha  occ. eigenvalues --   -0.49365  -0.49301  -0.49301  -0.49119  -0.49112
 Alpha  occ. eigenvalues --   -0.48352  -0.48163  -0.47940  -0.47569  -0.47270
 Alpha  occ. eigenvalues --   -0.46352  -0.46351  -0.46063  -0.45885  -0.45593
 Alpha  occ. eigenvalues --   -0.45451  -0.45444  -0.45437  -0.45232  -0.45200
 Alpha  occ. eigenvalues --   -0.45009  -0.43961  -0.43785  -0.43680  -0.43156
 Alpha  occ. eigenvalues --   -0.42580  -0.42454  -0.42368  -0.41942  -0.41826
 Alpha  occ. eigenvalues --   -0.41712  -0.41449  -0.41205  -0.39981  -0.39470
 Alpha  occ. eigenvalues --   -0.39201  -0.38528  -0.37800  -0.37676  -0.37611
 Alpha  occ. eigenvalues --   -0.37369  -0.37176  -0.36979  -0.36885  -0.36778
 Alpha  occ. eigenvalues --   -0.36734  -0.36542  -0.36019  -0.35713  -0.35154
 Alpha  occ. eigenvalues --   -0.34935  -0.33924  -0.33877  -0.33741  -0.33426
 Alpha  occ. eigenvalues --   -0.33413  -0.32895  -0.32741  -0.32681  -0.32660
 Alpha  occ. eigenvalues --   -0.32660  -0.32543  -0.32521  -0.32433  -0.32431
 Alpha  occ. eigenvalues --   -0.31772  -0.31677  -0.28808  -0.27253  -0.27253
 Alpha  occ. eigenvalues --   -0.27073  -0.27068  -0.26434  -0.26434  -0.26290
 Alpha  occ. eigenvalues --   -0.26204  -0.26191  -0.24109  -0.23953  -0.23358
 Alpha  occ. eigenvalues --   -0.23216  -0.19858  -0.16403
 Alpha virt. eigenvalues --   -0.06315  -0.02317  -0.00042   0.01898   0.02096
 Alpha virt. eigenvalues --    0.02438   0.02733   0.03553   0.04120   0.04258
 Alpha virt. eigenvalues --    0.04450   0.04495   0.04575   0.04745   0.04953

 Mulliken charges:
               1
     1  C   -0.247681
     2  C    0.234601
     3  C   -0.090827
     4  C   -0.302966
     5  S    0.313099
     6  O   -0.382600
     7  H    0.108901
     8  C   -0.224542
     9  C    0.240260
    10  C   -0.073220
    11  C   -0.237542
    12  S    0.351795
    13  O   -0.385809
    14  H    0.117561
    15  C   -0.043348
    16  H    0.116694
    17  H    0.116693
    18  C   -0.051170
    19  H    0.118080
    20  H    0.118081
    21  H    0.127567
    22  C   -0.224542
    23  C    0.240260
    24  C   -0.073220
    25  C   -0.237542
    26  S    0.351795
    27  O   -0.385809
    28  H    0.117561
    29  C   -0.247681
    30  C    0.234601
    31  C   -0.090827
    32  C   -0.302966
    33  S    0.313099
    34  O   -0.382600
    35  H    0.108901
    36  C   -0.051171
    37  H    0.118082
    38  H    0.118080
    39  C   -0.043348
    40  H    0.116698
    41  H    0.116689
    42  H    0.127567
    43  C    0.018719
    44  H    0.105478
    45  H    0.105478
    46  C    0.014047
    47  H    0.105614
    48  H    0.105614
    49  C    0.018719
    50  H    0.105478
    51  H    0.105478
    52  C    0.014047
    53  H    0.105615
    54  H    0.105614
    55  O   -0.392324
    56  O   -0.392230
    57  O   -0.392230
    58  O   -0.392324
    59  C   -0.000048
    60  H    0.099706
    61  H    0.099706
    62  C    0.000004
    63  H    0.099242
    64  H    0.099242
    65  C   -0.000048
    66  H    0.099704
    67  H    0.099707
    68  C    0.000004
    69  H    0.099242
    70  H    0.099242
    71  C   -0.008225
    72  H    0.094672
    73  H    0.094672
    74  C   -0.008040
    75  H    0.095262
    76  H    0.095262
    77  C   -0.008225
    78  H    0.094672
    79  H    0.094672
    80  C   -0.008040
    81  H    0.095263
    82  H    0.095261
    83  O   -0.370638
    84  O   -0.370744
    85  O   -0.370638
    86  O   -0.370745
    87  C   -0.102137
    88  H    0.089929
    89  H    0.115118
    90  H    0.089930
    91  C   -0.102230
    92  H    0.115356
    93  H    0.089968
    94  H    0.089967
    95  C   -0.102137
    96  H    0.089930
    97  H    0.115119
    98  H    0.089930
    99  C   -0.102230
   100  H    0.089967
   101  H    0.115356
   102  H    0.089968
 Sum of Mulliken charges =  -0.00000

 Dipole moment (field-independent basis, Debye):
    X=              0.0000    Y=             -0.0000    Z=              0.0007  Tot=              0.0007
 Quadrupole moment (field-independent basis, Debye-Ang):
   XX=           -252.5592   YY=           -318.9625   ZZ=           -345.8003
   XY=            -28.1477   XZ=             -0.0005   YZ=             -0.0013

 ESP charges:
               1
     1  C   -0.049213
     2  C    0.301391
     3  C   -0.284978
     4  C   -0.144367
     5  S   -0.049054
     6  O   -0.282413
     7  H    0.143362
     8  C   -0.024383
     9  C    0.321493
    10  C   -0.356694
    11  C    0.109153
    12  S   -0.176291
    13  O   -0.367302
    14  H    0.207199
    15  C    0.074423
    16  H    0.042512
    17  H    0.042508
    18  C    0.182401
    19  H    0.008483
    20  H    0.008336
    21  H    0.170338
    22  C   -0.024487
    23  C    0.321562
    24  C   -0.356778
    25  C    0.109365
    26  S   -0.176429
    27  O   -0.367284
    28  H    0.207184
    29  C   -0.048989
    30  C    0.300798
    31  C   -0.284364
    32  C   -0.144596
    33  S   -0.049105
    34  O   -0.281781
    35  H    0.142974
    36  C    0.182384
    37  H    0.008332
    38  H    0.008493
    39  C    0.073674
    40  H    0.042717
    41  H    0.042831
    42  H    0.170472
    43  C    0.433258
    44  H   -0.038795
    45  H   -0.038921
    46  C    0.395719
    47  H   -0.020724
    48  H   -0.020776
    49  C    0.433332
    50  H   -0.038829
    51  H   -0.038928
    52  C    0.395342
    53  H   -0.020621
    54  H   -0.020655
    55  O   -0.532094
    56  O   -0.561144
    57  O   -0.561226
    58  O   -0.531805
    59  C    0.201047
    60  H   -0.003457
    61  H   -0.003404
    62  C    0.257938
    63  H   -0.013201
    64  H   -0.013204
    65  C    0.200588
    66  H   -0.003366
    67  H   -0.003341
    68  C    0.258013
    69  H   -0.013241
    70  H   -0.013231
    71  C    0.356804
    72  H   -0.021044
    73  H   -0.021058
    74  C    0.310762
    75  H   -0.011464
    76  H   -0.011281
    77  C    0.357147
    78  H   -0.021145
    79  H   -0.021109
    80  C    0.310987
    81  H   -0.011510
    82  H   -0.011332
    83  O   -0.465932
    84  O   -0.458579
    85  O   -0.465911
    86  O   -0.458643
    87  C    0.166576
    88  H   -0.005565
    89  H    0.044536
    90  H   -0.005545
    91  C    0.153362
    92  H    0.043568
    93  H    0.002962
    94  H    0.002722
    95  C    0.166405
    96  H   -0.005563
    97  H    0.044587
    98  H   -0.005480
    99  C    0.153330
   100  H    0.002747
   101  H    0.043590
   102  H    0.002932
 Sum of ESP charges =  -0.00000

 Normal termination of Gaussian 16 at Mon Jan 13 15:37:15 2020.
