 Gaussian 16, Revision A.03,
 Gaussian 16:  ES64L-G16RevA.03 25-Dec-2016

 ----------------------------
 #p pop=ChelpG b3lyp/6-311g**
 ----------------------------

 ------------------
 O3G_1m_0sc_pop.pdb
 ------------------
 Symbolic Z-matrix:
 Charge =  0 Multiplicity = 1

                         Standard orientation:
 ---------------------------------------------------------------------
 Center     Atomic      Atomic             Coordinates (Angstroms)
 Number     Number       Type             X           Y           Z
 ---------------------------------------------------------------------
      1          6           0        0.185017    0.870263   -0.006595
      2          6           0        1.450938    1.433717   -0.004657
      3          6           0        1.459261    2.857885   -0.004109
      4          6           0        0.196788    3.378259   -0.005633
      5         16           0       -1.019641    2.152526   -0.007753
      6          8           0        2.549417    0.624854   -0.003465
      7          1           0        2.353051    3.463231   -0.002662
      8          6           0       -0.166474   -0.529822   -0.007602
      9          6           0       -1.432396   -1.093275   -0.009540
     10          6           0       -1.439781   -2.518503   -0.010088
     11          6           0       -0.178246   -3.037817   -0.008565
     12         16           0        1.038183   -1.812084   -0.006444
     13          8           0       -2.530936   -0.285411   -0.010733
     14          1           0       -2.334570   -3.123787   -0.011536
     15          6           0        3.836370    1.237110   -0.001480
     16          1           0        3.967663    1.860825    0.888935
     17          1           0        3.970090    1.861497   -0.892063
     18          6           0        4.860642    0.117212   -0.000507
     19          1           0        4.722442   -0.514914    0.888067
     20          1           0        4.724865   -0.514243   -0.889931
     21          8           0        6.136493    0.728146    0.001463
     22          6           0        7.206655   -0.199204    0.002572
     23          1           0        7.166778   -0.845383    0.891274
     24          1           0        7.169201   -0.844713   -0.886724
     25          6           0        8.500834    0.595953    0.004635
     26          1           0        8.538288    1.241462    0.893931
     27          1           0        8.540711    1.242133   -0.884067
     28          8           0        9.567940   -0.332211    0.005740
     29          6           0       10.845787    0.278601    0.007712
     30          1           0       10.977573    0.910301    0.896130
     31          1           0       10.980993    0.910910   -0.880866
     32          6           0       11.883832   -0.829119    0.008709
     33          1           0       11.749927   -1.462693   -0.879714
     34          1           0       11.747505   -1.463363    0.897284
     35          8           0       13.158746   -0.217126    0.010677
     36          6           0       14.218497   -1.150849    0.011769
     37          1           0       14.192272   -1.793039   -0.880510
     38          1           0       15.149007   -0.583827    0.013251
     39          1           0       14.189840   -1.793712    0.904489
     40          6           0       -3.758623   -0.846203   -0.012618
     41          1           0       -3.266736   -1.251530    0.877901
     42          1           0       -3.265307   -1.250797   -0.903099
     43          6           0       -4.904596    0.151924   -0.007803
     44          1           0       -4.838442    0.791663    0.881529
     45          1           0       -4.842883    0.794759   -0.896477
     46          8           0       -6.101079   -0.602147   -0.004718
     47          6           0       -7.272288    0.197154   -0.001013
     48          1           0       -7.304074    0.840904    0.889188
     49          1           0       -7.308576    0.843002   -0.888820
     50          6           0       -8.466015   -0.740431    0.001006
     51          1           0       -8.427853   -1.388397    0.888815
     52          1           0       -8.433353   -1.386238   -0.889194
     53          8           0       -9.633169    0.059623    0.004718
     54          6           0      -10.832586   -0.693266    0.007799
     55          1           0      -10.889428   -1.338403    0.894479
     56          1           0      -10.895928   -1.336183   -0.882531
     57          6           0      -11.990579    0.288568    0.011591
     58          1           0      -11.930681    0.934519   -0.875085
     59          1           0      -11.925241    0.931362    0.901923
     60          8           0      -13.187063   -0.465503    0.014676
     61          6           0      -14.345743    0.342045    0.019401
     62          1           0      -14.395369    0.982703   -0.872426
     63          1           0      -15.206468   -0.328451    0.019975
     64          1           0      -14.389817    0.981539    0.912583
     65          1           0        0.119809    4.424946   -0.005343
     66          1           0        0.271462   -3.986170   -0.008309
 ---------------------------------------------------------------------

 SCF Done:  E(RB3LYP) =  -2257.13379722     A.U. after   14 cycles

 The electronic state is 1-A.
 Alpha  occ. eigenvalues --  -88.87465 -88.87181 -19.15744 -19.14528 -19.13204
 Alpha  occ. eigenvalues --  -19.12932 -19.12744 -19.12578 -19.12308 -19.12203
 Alpha  occ. eigenvalues --  -10.23609 -10.23348 -10.23300 -10.23281 -10.22638
 Alpha  occ. eigenvalues --  -10.22251 -10.22100 -10.22061 -10.21911 -10.21861
 Alpha  occ. eigenvalues --  -10.21732 -10.21717 -10.21603 -10.21547 -10.21462
 Alpha  occ. eigenvalues --  -10.21364 -10.20739 -10.20469 -10.19502 -10.19146
 Alpha  occ. eigenvalues --  -10.18108 -10.17371  -7.96004  -7.95788  -5.92324
 Alpha  occ. eigenvalues --   -5.92089  -5.91935  -5.91699  -5.91566  -5.91379
 Alpha  occ. eigenvalues --   -1.12128  -1.07576  -1.05213  -1.05012  -1.04465
 Alpha  occ. eigenvalues --   -1.04292  -1.03660  -1.03521  -0.89311  -0.87386
 Alpha  occ. eigenvalues --   -0.79841  -0.79555  -0.77867  -0.77456  -0.76268
 Alpha  occ. eigenvalues --   -0.74237  -0.73557  -0.72119  -0.70817  -0.69558
 Alpha  occ. eigenvalues --   -0.67107  -0.66759  -0.64636  -0.63268  -0.61586
 Alpha  occ. eigenvalues --   -0.61377  -0.61100  -0.61000  -0.60245  -0.57634
 Alpha  occ. eigenvalues --   -0.55915  -0.54404  -0.54376  -0.53913  -0.51729
 Alpha  occ. eigenvalues --   -0.51729  -0.51645  -0.50918  -0.50405  -0.49649
 Alpha  occ. eigenvalues --   -0.48952  -0.48859  -0.48326  -0.48312  -0.48097
 Alpha  occ. eigenvalues --   -0.47638  -0.46716  -0.46134  -0.45771  -0.45351
 Alpha  occ. eigenvalues --   -0.45182  -0.45086  -0.44127  -0.43807  -0.43196
 Alpha  occ. eigenvalues --   -0.43099  -0.42753  -0.42294  -0.40963  -0.40382
 Alpha  occ. eigenvalues --   -0.40201  -0.39291  -0.38565  -0.37947  -0.37197
 Alpha  occ. eigenvalues --   -0.36843  -0.36639  -0.36108  -0.36036  -0.35945
 Alpha  occ. eigenvalues --   -0.34620  -0.33927  -0.33658  -0.32955  -0.32810
 Alpha  occ. eigenvalues --   -0.32790  -0.32755  -0.32466  -0.32347  -0.29705
 Alpha  occ. eigenvalues --   -0.29438  -0.27413  -0.27397  -0.27062  -0.26813
 Alpha  occ. eigenvalues --   -0.26613  -0.26193  -0.26058  -0.23911  -0.23382
 Alpha  occ. eigenvalues --   -0.18334
 Alpha virt. eigenvalues --   -0.04243   0.00834   0.01576   0.02372   0.04008
 Alpha virt. eigenvalues --    0.04265   0.04411   0.04667   0.04836   0.05041
 Alpha virt. eigenvalues --    0.05169   0.05448   0.06362   0.06652   0.06935

 Mulliken charges:
               1
     1  C   -0.232580
     2  C    0.238382
     3  C   -0.105272
     4  C   -0.282943
     5  S    0.307716
     6  O   -0.383500
     7  H    0.108873
     8  C   -0.223920
     9  C    0.196149
    10  C   -0.085837
    11  C   -0.306778
    12  S    0.309333
    13  O   -0.348036
    14  H    0.126340
    15  C   -0.042902
    16  H    0.116832
    17  H    0.116687
    18  C    0.014651
    19  H    0.105426
    20  H    0.105442
    21  O   -0.391709
    22  C    0.000294
    23  H    0.098540
    24  H    0.098542
    25  C    0.002672
    26  H    0.096531
    27  H    0.096537
    28  O   -0.389986
    29  C    0.000582
    30  H    0.097947
    31  H    0.097737
    32  C   -0.007944
    33  H    0.094446
    34  H    0.094240
    35  O   -0.370638
    36  C   -0.102034
    37  H    0.089271
    38  H    0.115810
    39  H    0.089106
    40  C   -0.070080
    41  H    0.112805
    42  H    0.112970
    43  C    0.025600
    44  H    0.102132
    45  H    0.101851
    46  O   -0.383551
    47  C   -0.001379
    48  H    0.097830
    49  H    0.097986
    50  C    0.002517
    51  H    0.097963
    52  H    0.097860
    53  O   -0.390743
    54  C    0.000800
    55  H    0.098011
    56  H    0.097467
    57  C   -0.008047
    58  H    0.094456
    59  H    0.094010
    60  O   -0.370359
    61  C   -0.102044
    62  H    0.089161
    63  H    0.115349
    64  H    0.089205
    65  H    0.119053
    66  H    0.135168
 Sum of Mulliken charges =  -0.00000

 Dipole moment (field-independent basis, Debye):
    X=              0.7969    Y=              0.4361    Z=              0.0048  Tot=              0.9085
 Quadrupole moment (field-independent basis, Debye-Ang):
   XX=           -167.5941   YY=           -197.0370   ZZ=           -210.3945
   XY=            -20.6694   XZ=             -0.0307   YZ=              0.0083

 ESP charges:
               1
     1  C   -0.099043
     2  C    0.440004
     3  C   -0.391904
     4  C   -0.064530
     5  S   -0.092070
     6  O   -0.433252
     7  H    0.164070
     8  C   -0.073266
     9  C    0.284593
    10  C   -0.186216
    11  C   -0.218087
    12  S   -0.021579
    13  O   -0.160765
    14  H    0.109713
    15  C    0.244696
    16  H    0.009303
    17  H    0.009145
    18  C    0.383913
    19  H   -0.028343
    20  H   -0.028039
    21  O   -0.591105
    22  C    0.315185
    23  H   -0.022664
    24  H   -0.022785
    25  C    0.401410
    26  H   -0.034841
    27  H   -0.035039
    28  O   -0.578170
    29  C    0.270094
    30  H   -0.016273
    31  H   -0.016157
    32  C    0.316636
    33  H   -0.011481
    34  H   -0.011646
    35  O   -0.465018
    36  C    0.169419
    37  H   -0.005518
    38  H    0.043712
    39  H   -0.005398
    40  C   -0.157774
    41  H    0.058887
    42  H    0.059139
    43  C    0.521315
    44  H   -0.042291
    45  H   -0.043471
    46  O   -0.554122
    47  C    0.237989
    48  H   -0.011508
    49  H   -0.011048
    50  C    0.432661
    51  H   -0.040552
    52  H   -0.041142
    53  O   -0.572849
    54  C    0.283994
    55  H   -0.021205
    56  H   -0.021278
    57  C    0.301561
    58  H   -0.009514
    59  H   -0.010069
    60  O   -0.456712
    61  C    0.153607
    62  H   -0.001078
    63  H    0.046747
    64  H   -0.000952
    65  H    0.150623
    66  H    0.200335
 Sum of ESP charges =  -0.00000

 Normal termination of Gaussian 16 at Mon Jan 13 14:45:09 2020.
