 Gaussian 16, Revision A.03,
 Gaussian 16:  ES64L-G16RevA.03 25-Dec-2016

 --------------------------------
 #p opt Pop=CHelpG b3lyp/6-311g**
 --------------------------------

 ----------------------
 O3G_4m_0sc_opt_pop.gjf
 ----------------------
 Symbolic Z-matrix:
 Charge =  0 Multiplicity = 1

 SCF Done:  E(RB3LYP) =  -6255.65485166     A.U. after   16 cycles
 SCF Done:  E(RB3LYP) =  -6255.73257493     A.U. after   12 cycles
 SCF Done:  E(RB3LYP) =  -6255.77354566     A.U. after   14 cycles
 SCF Done:  E(RB3LYP) =  -6255.81047833     A.U. after   12 cycles
 SCF Done:  E(RB3LYP) =  -6255.82461455     A.U. after   12 cycles
 SCF Done:  E(RB3LYP) =  -6255.82616718     A.U. after   11 cycles
 SCF Done:  E(RB3LYP) =  -6255.82650265     A.U. after   10 cycles
 SCF Done:  E(RB3LYP) =  -6255.82655138     A.U. after   10 cycles
 SCF Done:  E(RB3LYP) =  -6255.82655779     A.U. after    9 cycles
 SCF Done:  E(RB3LYP) =  -6255.82655831     A.U. after    9 cycles
 SCF Done:  E(RB3LYP) =  -6255.82655831     A.U. after    5 cycles
 Optimization completed.
    -- Stationary point found.

                         Standard orientation:
 ---------------------------------------------------------------------
 Center     Atomic      Atomic             Coordinates (Angstroms)
 Number     Number       Type             X           Y           Z
 ---------------------------------------------------------------------
      1          6           0        3.189506   -0.534054   -0.000062
      2          6           0        2.907088    0.828922   -0.000072
      3          6           0        1.531594    1.144420   -0.000059
      4          6           0        0.717834    0.028520   -0.000038
      5         16           0        1.676546   -1.437303   -0.000037
      6          8           0        3.936292    1.722146   -0.000096
      7          1           0        1.143379    2.152567   -0.000066
      8          6           0        4.470678   -1.173919   -0.000070
      9          6           0        4.746769   -2.538217   -0.000060
     10          6           0        6.121742   -2.859301   -0.000066
     11          6           0        6.940630   -1.747825   -0.000079
     12         16           0        5.987777   -0.278141   -0.000100
     13          8           0        3.712121   -3.422293   -0.000040
     14          1           0        6.506513   -3.868777   -0.000056
     15          6           0        4.019962   -4.810527   -0.000062
     16          1           0        3.062820   -5.329101   -0.000054
     17          1           0        4.585150   -5.091755   -0.895096
     18          1           0        4.585174   -5.091777    0.894951
     19          6           0       10.844487   -2.273532   -0.000059
     20          6           0       10.573177   -0.911112   -0.000083
     21          6           0        9.197456   -0.586595   -0.000096
     22          6           0        8.377902   -1.697120   -0.000081
     23         16           0        9.328921   -3.167602   -0.000074
     24          8           0       11.610316   -0.028704   -0.000085
     25          1           0        8.814688    0.423639   -0.000109
     26          6           0       12.128656   -2.920764   -0.000031
     27          6           0       12.398047   -4.282987   -0.000008
     28          6           0       13.783846   -4.604359    0.000005
     29          6           0       14.570190   -3.487892   -0.000012
     30         16           0       13.646055   -2.029051   -0.000015
     31          8           0       11.362629   -5.169304   -0.000005
     32          1           0       14.178634   -5.609862    0.000018
     33          6           0       11.305190    1.359768   -0.000108
     34          1           0       10.740562    1.642691    0.894864
     35          1           0       10.740580    1.642665   -0.895099
     36          1           0       12.263268    1.876686   -0.000105
     37          6           0       11.673477   -6.555818    0.000017
     38          1           0       10.717870   -7.077483    0.000015
     39          1           0       12.239245   -6.837241   -0.894878
     40          1           0       12.239228   -6.837217    0.894931
     41          1           0       15.647855   -3.437865   -0.000013
     42          6           0      -12.128680    2.920801   -0.000023
     43          6           0      -12.398092    4.283022   -0.000031
     44          6           0      -13.783896    4.604371   -0.000031
     45          6           0      -14.570222    3.487891   -0.000021
     46         16           0      -13.646062    2.029066   -0.000021
     47          8           0      -11.362692    5.169359   -0.000037
     48          1           0      -14.178701    5.609867   -0.000035
     49          6           0      -10.844507    2.273576   -0.000018
     50          6           0      -10.573205    0.911156   -0.000009
     51          6           0       -9.197487    0.586631   -0.000011
     52          6           0       -8.377926    1.697151   -0.000020
     53         16           0       -9.328935    3.167639   -0.000021
     54          8           0      -11.610353    0.028758   -0.000004
     55          1           0       -8.814725   -0.423606   -0.000007
     56          6           0      -11.673569    6.555866   -0.000045
     57          1           0      -12.239333    6.837270    0.894858
     58          1           0      -12.239335    6.837260   -0.894951
     59          1           0      -10.717972    7.077552   -0.000049
     60          6           0      -11.305240   -1.359717    0.000004
     61          1           0      -12.263324   -1.876624    0.000008
     62          1           0      -10.740625   -1.642637   -0.894977
     63          1           0      -10.740623   -1.642627    0.894987
     64          1           0      -15.647886    3.437847   -0.000017
     65          6           0       -4.470705    1.173921   -0.000023
     66          6           0       -4.746783    2.538218   -0.000039
     67          6           0       -6.121755    2.859313   -0.000042
     68          6           0       -6.940655    1.747847   -0.000027
     69         16           0       -5.987814    0.278152   -0.000021
     70          8           0       -3.712124    3.422288   -0.000049
     71          1           0       -6.506516    3.868793   -0.000051
     72          6           0       -3.189538    0.534031   -0.000012
     73          6           0       -2.907134   -0.828943    0.000007
     74          6           0       -1.531635   -1.144447    0.000003
     75          6           0       -0.717870   -0.028559   -0.000020
     76         16           0       -1.676580    1.437278   -0.000016
     77          8           0       -3.936349   -1.722159    0.000023
     78          1           0       -1.143447   -2.152605    0.000011
     79          6           0       -4.019943    4.810528   -0.000064
     80          1           0       -4.585138    5.091786    0.894956
     81          1           0       -4.585137    5.091766   -0.895092
     82          1           0       -3.062793    5.329087   -0.000069
     83          6           0       -3.620842   -3.111778    0.000025
     84          1           0       -3.040535   -3.376652    0.890582
     85          1           0       -3.040543   -3.376656   -0.890535
     86          6           0       -4.939238   -3.865036    0.000037
     87          1           0       -5.524402   -3.593081    0.889538
     88          1           0       -5.524402   -3.593113   -0.889475
     89          8           0       -4.623140   -5.243624    0.000061
     90          6           0       -5.763228   -6.084138    0.000061
     91          1           0       -6.383999   -5.904491    0.889089
     92          1           0       -6.383976   -5.904522   -0.888990
     93          6           0       -5.272962   -7.521306    0.000093
     94          1           0       -4.651380   -7.700586    0.888874
     95          1           0       -4.651362   -7.700620   -0.888669
     96          8           0       -6.413510   -8.358282    0.000098
     97          6           0       -6.098808   -9.739144    0.000123
     98          1           0       -5.511037  -10.008762    0.888862
     99          1           0       -5.511084  -10.008806   -0.888634
    100          6           0       -7.407631  -10.508814    0.000171
    101          1           0       -7.996169  -10.237083   -0.888661
    102          1           0       -7.996101  -10.237100    0.889053
    103          8           0       -7.090808  -11.886414    0.000147
    104          6           0       -8.234860  -12.715251    0.000200
    105          1           0       -8.855437  -12.548017   -0.892003
    106          1           0       -7.885466  -13.748074    0.000170
    107          1           0       -8.855340  -12.548037    0.892474
    108          6           0        3.620777    3.111774   -0.000045
    109          1           0        3.040452    3.376614    0.890515
    110          1           0        3.040442    3.376677   -0.890580
    111          6           0        4.939164    3.865011   -0.000027
    112          1           0        5.524341    3.593047    0.889464
    113          1           0        5.524333    3.593102   -0.889541
    114          8           0        4.623109    5.243635    0.000016
    115          6           0        5.763252    6.084087    0.000033
    116          1           0        6.384002    5.904392    0.889063
    117          1           0        6.383989    5.904444   -0.889017
    118          6           0        5.273059    7.521282    0.000079
    119          1           0        4.651475    7.700570    0.888857
    120          1           0        4.651469    7.700625   -0.888683
    121          8           0        6.413627    8.358237    0.000102
    122          6           0        6.098962    9.739110    0.000142
    123          1           0        5.511187   10.008729    0.888877
    124          1           0        5.511256   10.008797   -0.888619
    125          6           0        7.407804   10.508748    0.000218
    126          1           0        7.996343   10.237021   -0.888615
    127          1           0        7.996259   10.236995    0.889098
    128          8           0        7.091023   11.886358    0.000224
    129          6           0        8.235101   12.715162    0.000292
    130          1           0        8.855670   12.547927   -0.891915
    131          1           0        7.885738   13.747995    0.000284
    132          1           0        8.855576   12.547910    0.892562
 ---------------------------------------------------------------------

 The electronic state is 1-A.
 Alpha  occ. eigenvalues --  -88.86914 -88.86914 -88.86832 -88.86832 -88.86766
 Alpha  occ. eigenvalues --  -88.86766 -88.86729 -88.86729 -19.15723 -19.15723
 Alpha  occ. eigenvalues --  -19.15589 -19.15588 -19.15526 -19.15526 -19.15462
 Alpha  occ. eigenvalues --  -19.15462 -19.13175 -19.13174 -19.12766 -19.12766
 Alpha  occ. eigenvalues --  -19.12335 -19.12335 -10.23340 -10.23340 -10.23286
 Alpha  occ. eigenvalues --  -10.23286 -10.23230 -10.23230 -10.23158 -10.23158
 Alpha  occ. eigenvalues --  -10.23078 -10.23078 -10.22994 -10.22994 -10.22902
 Alpha  occ. eigenvalues --  -10.22902 -10.22847 -10.22846 -10.22599 -10.22599
 Alpha  occ. eigenvalues --  -10.22261 -10.22260 -10.22099 -10.22099 -10.21887
 Alpha  occ. eigenvalues --  -10.21887 -10.21761 -10.21761 -10.21484 -10.21484
 Alpha  occ. eigenvalues --  -10.20862 -10.20862 -10.20771 -10.20767 -10.20767
 Alpha  occ. eigenvalues --  -10.20732 -10.20472 -10.20472 -10.20432 -10.20432
 Alpha  occ. eigenvalues --  -10.20320 -10.20320 -10.20218 -10.20218 -10.19359
 Alpha  occ. eigenvalues --  -10.19359 -10.17498 -10.17498 -10.17387 -10.17387
 Alpha  occ. eigenvalues --  -10.17339 -10.17339 -10.17319 -10.17319  -7.95491
 Alpha  occ. eigenvalues --   -7.95491  -7.95424  -7.95424  -7.95356  -7.95356
 Alpha  occ. eigenvalues --   -7.95317  -7.95317  -5.91802  -5.91802  -5.91755
 Alpha  occ. eigenvalues --   -5.91755  -5.91684  -5.91684  -5.91648  -5.91648
 Alpha  occ. eigenvalues --   -5.91414  -5.91414  -5.91371  -5.91371  -5.91299
 Alpha  occ. eigenvalues --   -5.91299  -5.91262  -5.91262  -5.91062  -5.91062
 Alpha  occ. eigenvalues --   -5.90949  -5.90949  -5.90886  -5.90886  -5.90841
 Alpha  occ. eigenvalues --   -5.90841  -1.07598  -1.07597  -1.07346  -1.07346
 Alpha  occ. eigenvalues --   -1.07276  -1.07276  -1.07199  -1.07199  -1.05201
 Alpha  occ. eigenvalues --   -1.05200  -1.04467  -1.04467  -1.03681  -1.03681
 Alpha  occ. eigenvalues --   -0.89690  -0.89439  -0.89033  -0.88325  -0.87932
 Alpha  occ. eigenvalues --   -0.87202  -0.86492  -0.86009  -0.80291  -0.79696
 Alpha  occ. eigenvalues --   -0.79218  -0.78706  -0.77742  -0.77171  -0.76573
 Alpha  occ. eigenvalues --   -0.76248  -0.75547  -0.75288  -0.74930  -0.74801
 Alpha  occ. eigenvalues --   -0.74174  -0.74036  -0.73712  -0.73514  -0.72318
 Alpha  occ. eigenvalues --   -0.72254  -0.71952  -0.71951  -0.71096  -0.69898
 Alpha  occ. eigenvalues --   -0.69867  -0.69704  -0.69029  -0.68644  -0.67168
 Alpha  occ. eigenvalues --   -0.67130  -0.66483  -0.65635  -0.63907  -0.63019
 Alpha  occ. eigenvalues --   -0.62059  -0.61608  -0.61582  -0.61150  -0.61120
 Alpha  occ. eigenvalues --   -0.60911  -0.60030  -0.59232  -0.58819  -0.58093
 Alpha  occ. eigenvalues --   -0.57180  -0.56624  -0.56006  -0.55384  -0.55347
 Alpha  occ. eigenvalues --   -0.55070  -0.55061  -0.54010  -0.53857  -0.53729
 Alpha  occ. eigenvalues --   -0.53560  -0.53371  -0.52502  -0.52202  -0.51709
 Alpha  occ. eigenvalues --   -0.51707  -0.51688  -0.51435  -0.50387  -0.50384
 Alpha  occ. eigenvalues --   -0.50000  -0.49350  -0.48832  -0.48584  -0.48320
 Alpha  occ. eigenvalues --   -0.48312  -0.48117  -0.47752  -0.47709  -0.47709
 Alpha  occ. eigenvalues --   -0.47648  -0.47636  -0.47611  -0.47610  -0.47449
 Alpha  occ. eigenvalues --   -0.47449  -0.47145  -0.47132  -0.46815  -0.46620
 Alpha  occ. eigenvalues --   -0.46081  -0.45393  -0.45249  -0.45181  -0.45108
 Alpha  occ. eigenvalues --   -0.45076  -0.44878  -0.44850  -0.44392  -0.44370
 Alpha  occ. eigenvalues --   -0.43872  -0.43747  -0.43537  -0.43347  -0.43215
 Alpha  occ. eigenvalues --   -0.42923  -0.42733  -0.42415  -0.41697  -0.41554
 Alpha  occ. eigenvalues --   -0.41096  -0.41017  -0.41010  -0.40998  -0.40776
 Alpha  occ. eigenvalues --   -0.40574  -0.40253  -0.40219  -0.40130  -0.39353
 Alpha  occ. eigenvalues --   -0.39288  -0.39188  -0.38614  -0.38513  -0.38074
 Alpha  occ. eigenvalues --   -0.37715  -0.37588  -0.37105  -0.36984  -0.36794
 Alpha  occ. eigenvalues --   -0.36779  -0.36673  -0.36222  -0.36087  -0.35954
 Alpha  occ. eigenvalues --   -0.35835  -0.35599  -0.35391  -0.35319  -0.35078
 Alpha  occ. eigenvalues --   -0.34910  -0.34408  -0.34401  -0.33957  -0.33956
 Alpha  occ. eigenvalues --   -0.33874  -0.33224  -0.32995  -0.32962  -0.32945
 Alpha  occ. eigenvalues --   -0.32918  -0.32823  -0.32810  -0.32620  -0.32582
 Alpha  occ. eigenvalues --   -0.32484  -0.32483  -0.31838  -0.31828  -0.31813
 Alpha  occ. eigenvalues --   -0.31792  -0.31706  -0.31671  -0.29379  -0.28369
 Alpha  occ. eigenvalues --   -0.27406  -0.27401  -0.26920  -0.26823  -0.26816
 Alpha  occ. eigenvalues --   -0.26216  -0.26215  -0.25577  -0.24214  -0.24111
 Alpha  occ. eigenvalues --   -0.23983  -0.23869  -0.23262  -0.23189  -0.23047
 Alpha  occ. eigenvalues --   -0.23007  -0.20556  -0.18923  -0.16910  -0.15127
 Alpha virt. eigenvalues --   -0.07475  -0.05755  -0.03767  -0.01419  -0.00650
 Alpha virt. eigenvalues --    0.01656   0.01823   0.01865   0.02078   0.02474
 Alpha virt. eigenvalues --    0.02620   0.02754   0.02814   0.02993   0.03276

 Mulliken charges:
               1
     1  C   -0.235852
     2  C    0.232835
     3  C   -0.068853
     4  C   -0.232876
     5  S    0.344337
     6  O   -0.385924
     7  H    0.118393
     8  C   -0.234222
     9  C    0.222300
    10  C   -0.068121
    11  C   -0.236333
    12  S    0.348091
    13  O   -0.372915
    14  H    0.115100
    15  C   -0.132945
    16  H    0.131030
    17  H    0.114439
    18  H    0.114439
    19  C   -0.210911
    20  C    0.219866
    21  C   -0.065451
    22  C   -0.238079
    23  S    0.341498
    24  O   -0.373078
    25  H    0.113741
    26  C   -0.235936
    27  C    0.220981
    28  C   -0.092904
    29  C   -0.298800
    30  S    0.309350
    31  O   -0.369365
    32  H    0.105492
    33  C   -0.132766
    34  H    0.113443
    35  H    0.113444
    36  H    0.131246
    37  C   -0.130052
    38  H    0.129209
    39  H    0.112237
    40  H    0.112237
    41  H    0.126973
    42  C   -0.235943
    43  C    0.220982
    44  C   -0.092906
    45  C   -0.298801
    46  S    0.309353
    47  O   -0.369363
    48  H    0.105491
    49  C   -0.210904
    50  C    0.219864
    51  C   -0.065449
    52  C   -0.238077
    53  S    0.341494
    54  O   -0.373080
    55  H    0.113742
    56  C   -0.130053
    57  H    0.112236
    58  H    0.112237
    59  H    0.129209
    60  C   -0.132766
    61  H    0.131246
    62  H    0.113444
    63  H    0.113444
    64  H    0.126972
    65  C   -0.234219
    66  C    0.222302
    67  C   -0.068120
    68  C   -0.236334
    69  S    0.348088
    70  O   -0.372919
    71  H    0.115099
    72  C   -0.235853
    73  C    0.232833
    74  C   -0.068848
    75  C   -0.232880
    76  S    0.344335
    77  O   -0.385919
    78  H    0.118393
    79  C   -0.132943
    80  H    0.114439
    81  H    0.114439
    82  H    0.131030
    83  C   -0.050127
    84  H    0.119202
    85  H    0.119202
    86  C    0.017229
    87  H    0.104815
    88  H    0.104814
    89  O   -0.391201
    90  C    0.000778
    91  H    0.097595
    92  H    0.097596
    93  C    0.002605
    94  H    0.097131
    95  H    0.097130
    96  O   -0.390533
    97  C    0.000507
    98  H    0.097886
    99  H    0.097888
   100  C   -0.007907
   101  H    0.094015
   102  H    0.094013
   103  O   -0.370358
   104  C   -0.102078
   105  H    0.089343
   106  H    0.115811
   107  H    0.089343
   108  C   -0.050123
   109  H    0.119204
   110  H    0.119203
   111  C    0.017231
   112  H    0.104818
   113  H    0.104818
   114  O   -0.391212
   115  C    0.000780
   116  H    0.097596
   117  H    0.097596
   118  C    0.002605
   119  H    0.097131
   120  H    0.097130
   121  O   -0.390536
   122  C    0.000509
   123  H    0.097886
   124  H    0.097888
   125  C   -0.007906
   126  H    0.094014
   127  H    0.094013
   128  O   -0.370359
   129  C   -0.102078
   130  H    0.089343
   131  H    0.115811
   132  H    0.089344
 Sum of Mulliken charges =  -0.00000

 Dipole moment (field-independent basis, Debye):
    X=             -0.0000    Y=             -0.0003    Z=              0.0001  Tot=              0.0003
 Quadrupole moment (field-independent basis, Debye-Ang):
   XX=           -410.1422   YY=           -381.7014   ZZ=           -507.6378
   XY=             -2.3969   XZ=              0.0005   YZ=             -0.0007

 ESP charges:
               1
     1  C   -0.020940
     2  C    0.276214
     3  C   -0.352834
     4  C    0.107672
     5  S   -0.186480
     6  O   -0.289767
     7  H    0.225441
     8  C    0.027962
     9  C    0.201962
    10  C   -0.349690
    11  C    0.132361
    12  S   -0.202283
    13  O   -0.172053
    14  H    0.232179
    15  C   -0.006132
    16  H    0.082733
    17  H    0.039926
    18  H    0.039921
    19  C    0.007552
    20  C    0.262565
    21  C   -0.315092
    22  C    0.080731
    23  S   -0.186453
    24  O   -0.263415
    25  H    0.206225
    26  C   -0.107096
    27  C    0.313261
    28  C   -0.280642
    29  C   -0.174549
    30  S   -0.018762
    31  O   -0.199492
    32  H    0.150455
    33  C    0.050228
    34  H    0.029862
    35  H    0.029868
    36  H    0.072726
    37  C   -0.029062
    38  H    0.086505
    39  H    0.050141
    40  H    0.050147
    41  H    0.174691
    42  C   -0.107255
    43  C    0.313619
    44  C   -0.280830
    45  C   -0.174555
    46  S   -0.018737
    47  O   -0.200045
    48  H    0.150614
    49  C    0.007640
    50  C    0.262508
    51  C   -0.315048
    52  C    0.080646
    53  S   -0.186404
    54  O   -0.263384
    55  H    0.206221
    56  C   -0.027365
    57  H    0.049579
    58  H    0.049577
    59  H    0.086207
    60  C    0.050210
    61  H    0.072726
    62  H    0.029867
    63  H    0.029872
    64  H    0.174686
    65  C    0.027967
    66  C    0.201964
    67  C   -0.349710
    68  C    0.132427
    69  S   -0.202304
    70  O   -0.172062
    71  H    0.232172
    72  C   -0.020928
    73  C    0.276191
    74  C   -0.352793
    75  C    0.107631
    76  S   -0.186477
    77  O   -0.289762
    78  H    0.225427
    79  C   -0.006132
    80  H    0.039929
    81  H    0.039927
    82  H    0.082735
    83  C    0.147907
    84  H    0.008311
    85  H    0.008304
    86  C    0.433461
    87  H   -0.038195
    88  H   -0.038205
    89  O   -0.553985
    90  C    0.231913
    91  H   -0.007436
    92  H   -0.007422
    93  C    0.428368
    94  H   -0.039748
    95  H   -0.039743
    96  O   -0.566654
    97  C    0.253824
    98  H   -0.014539
    99  H   -0.014538
   100  C    0.330535
   101  H   -0.016114
   102  H   -0.016115
   103  O   -0.467897
   104  C    0.181831
   105  H   -0.009369
   106  H    0.038287
   107  H   -0.009350
   108  C    0.147908
   109  H    0.008306
   110  H    0.008312
   111  C    0.433466
   112  H   -0.038199
   113  H   -0.038203
   114  O   -0.553989
   115  C    0.231883
   116  H   -0.007425
   117  H   -0.007415
   118  C    0.428404
   119  H   -0.039753
   120  H   -0.039751
   121  O   -0.566685
   122  C    0.253883
   123  H   -0.014558
   124  H   -0.014559
   125  C    0.330552
   126  H   -0.016123
   127  H   -0.016124
   128  O   -0.467886
   129  C    0.181761
   130  H   -0.009349
   131  H    0.038299
   132  H   -0.009325
 Sum of ESP charges =   0.00000

 Normal termination of Gaussian 16 at Mon Jan 13 17:42:50 2020.
