 Gaussian 16, Revision A.03,
 Gaussian 16:  ES64L-G16RevA.03 25-Dec-2016

 -----------------------------------
 #p opt b3lyp/6-311g(d,p) pop=chelpg
 -----------------------------------

 -----------------------
 O3G_4m_0sce_opt_pop.gjf
 -----------------------
 Symbolic Z-matrix:
 Charge =  0 Multiplicity = 1

 SCF Done:  E(RB3LYP) =  -6255.56240944     A.U. after   16 cycles
 SCF Done:  E(RB3LYP) =  -6255.62975423     A.U. after   12 cycles
 SCF Done:  E(RB3LYP) =  -6255.76849222     A.U. after   12 cycles
 SCF Done:  E(RB3LYP) =  -6255.81504886     A.U. after   12 cycles
 SCF Done:  E(RB3LYP) =  -6255.82252143     A.U. after   12 cycles
 SCF Done:  E(RB3LYP) =  -6255.82614095     A.U. after   11 cycles
 SCF Done:  E(RB3LYP) =  -6255.82657202     A.U. after   11 cycles
 SCF Done:  E(RB3LYP) =  -6255.82665684     A.U. after   10 cycles
 SCF Done:  E(RB3LYP) =  -6255.82667184     A.U. after    9 cycles
 SCF Done:  E(RB3LYP) =  -6255.82667422     A.U. after    9 cycles
 SCF Done:  E(RB3LYP) =  -6255.82667608     A.U. after    8 cycles
 SCF Done:  E(RB3LYP) =  -6255.82667688     A.U. after    7 cycles
 SCF Done:  E(RB3LYP) =  -6255.82667708     A.U. after    6 cycles
 SCF Done:  E(RB3LYP) =  -6255.82667724     A.U. after    6 cycles
 SCF Done:  E(RB3LYP) =  -6255.82667731     A.U. after    6 cycles
 SCF Done:  E(RB3LYP) =  -6255.82667741     A.U. after    5 cycles
 SCF Done:  E(RB3LYP) =  -6255.82667748     A.U. after    6 cycles
 SCF Done:  E(RB3LYP) =  -6255.82667750     A.U. after    5 cycles
 SCF Done:  E(RB3LYP) =  -6255.82667750     A.U. after    6 cycles
 Optimization completed.
    -- Stationary point found.

                         Standard orientation:
 ---------------------------------------------------------------------
 Center     Atomic      Atomic             Coordinates (Angstroms)
 Number     Number       Type             X           Y           Z
 ---------------------------------------------------------------------
      1          6           0       -6.013537   -0.151574    0.000075
      2          6           0       -5.447492   -1.423579    0.000720
      3          6           0       -4.036267   -1.438058    0.000850
      4          6           0       -3.478879   -0.174115    0.000305
      5         16           0       -4.728700    1.053501   -0.000328
      6          8           0       -6.265924   -2.511500    0.001201
      7          1           0       -3.440853   -2.339497    0.001338
      8          6           0       -7.402429    0.195773   -0.000248
      9          6           0       -7.968438    1.467451   -0.000891
     10          6           0       -9.380181    1.481610   -0.001172
     11          6           0       -9.936885    0.218041   -0.000707
     12         16           0       -8.687575   -1.009324    0.000158
     13          8           0       -7.150444    2.555686   -0.001273
     14          1           0       -9.975813    2.382908   -0.001849
     15          6           0       -7.753956    3.842978   -0.001964
     16          1           0       -6.933340    4.558351   -0.002133
     17          1           0       -8.366888    3.993769   -0.897093
     18          1           0       -8.367221    3.994570    0.892801
     19          6           0      -13.861535   -0.122049   -0.000396
     20          6           0      -13.298555   -1.392062   -0.001934
     21          6           0      -11.885236   -1.407715   -0.002220
     22          6           0      -11.328547   -0.144814   -0.000858
     23         16           0      -12.578271    1.082037    0.000796
     24          8           0      -14.117233   -2.480199   -0.003064
     25          1           0      -11.290508   -2.309604   -0.003506
     26          6           0      -15.256266    0.228184    0.000210
     27          6           0      -15.817860    1.498170    0.001784
     28          6           0      -17.240400    1.507862    0.001972
     29          6           0      -17.762844    0.246159    0.000545
     30         16           0      -16.541278   -0.974531   -0.001037
     31          8           0      -15.002067    2.590136    0.002981
     32          1           0      -17.846043    2.402348    0.003105
     33          6           0      -13.515121   -3.768066   -0.004669
     34          1           0      -12.901974   -3.921279    0.889958
     35          1           0      -12.902329   -3.919219   -0.899889
     36          1           0      -14.336654   -4.482368   -0.005329
     37          6           0      -15.609627    3.874529    0.004619
     38          1           0      -14.791838    4.593256    0.005385
     39          1           0      -16.223509    4.026059   -0.890007
     40          1           0      -16.223272    4.023886    0.899773
     41          1           0      -18.803316   -0.038943    0.000342
     42          6           0        9.690375   -0.203697   -0.000197
     43          6           0       10.256168   -1.471582   -0.000266
     44          6           0       11.678749   -1.478422   -0.000532
     45          6           0       12.198771   -0.216325   -0.000683
     46         16           0       10.973978    1.001264   -0.000416
     47          8           0        9.447270   -2.569970   -0.000105
     48          1           0       12.285097   -2.372346   -0.000636
     49          6           0        8.294977    0.146728    0.000031
     50          6           0        7.728094    1.414637    0.000106
     51          6           0        6.314647    1.427768    0.000283
     52          6           0        5.760029    0.164505    0.000327
     53         16           0        7.012581   -1.059540    0.000302
     54          8           0        8.540023    2.509080   -0.000031
     55          1           0        5.719494    2.329323    0.000339
     56          1           0       13.238569    0.071126   -0.000909
     57          6           0        1.835057   -0.181321    0.000378
     58          6           0        2.402175   -1.452624    0.000699
     59          6           0        3.813868   -1.465105    0.000732
     60          6           0        4.368962   -0.200780    0.000418
     61         16           0        3.118489    1.025054    0.000124
     62          8           0        1.584984   -2.541652    0.000942
     63          1           0        4.410307   -2.365883    0.000976
     64          6           0        0.445958    0.165123    0.000266
     65          6           0       -0.119914    1.437174   -0.000042
     66          6           0       -1.531204    1.451745   -0.000055
     67          6           0       -2.088539    0.187754    0.000233
     68         16           0       -0.838868   -1.040039    0.000499
     69          8           0        0.698744    2.524329   -0.000338
     70          1           0       -2.126511    2.353239   -0.000256
     71          6           0        2.189463   -3.828256    0.001286
     72          1           0        2.802633   -3.978873    0.896348
     73          1           0        2.802691   -3.979324   -0.893660
     74          1           0        1.369556   -4.544438    0.001440
     75          6           0        7.933255    3.798730    0.000051
     76          1           0        7.309753    3.932871    0.890694
     77          1           0        7.309481    3.932854   -0.890404
     78          6           0        9.059000    4.817754   -0.000131
     79          1           0        9.689405    4.678252    0.888973
     80          1           0        9.689131    4.678236   -0.889427
     81          8           0        8.453058    6.095842   -0.000049
     82          6           0        9.385454    7.162475   -0.000197
     83          1           0       10.030516    7.120726    0.888577
     84          1           0       10.030246    7.120714   -0.889167
     85          6           0        8.596416    8.459875   -0.000086
     86          1           0        7.950842    8.500743    0.888782
     87          1           0        7.950573    8.500732   -0.888758
     88          8           0        9.529066    9.523572   -0.000234
     89          6           0        8.923777   10.803794   -0.000147
     90          1           0        8.291792   10.940364    0.888701
     91          1           0        8.291512   10.940352   -0.888799
     92          6           0       10.035825   11.837610   -0.000330
     93          1           0       10.668929   11.699127   -0.889246
     94          1           0       10.669213   11.699135    0.888386
     95          8           0        9.429526   13.114664   -0.000239
     96          6           0       10.368206   14.170406   -0.000398
     97          1           0       11.010098   14.140733   -0.892712
     98          1           0        9.804620   15.103791   -0.000313
     99          1           0       11.010388   14.140745    0.891707
    100          6           0       10.059720   -3.855872   -0.000190
    101          1           0       10.684163   -3.988154    0.890262
    102          1           0       10.683841   -3.988190   -0.890863
    103          6           0        8.938974   -4.880415    0.000031
    104          1           0        8.308546   -4.743441    0.889618
    105          1           0        8.308214   -4.743462   -0.889325
    106          8           0        9.549869   -6.156050   -0.000067
    107          6           0        8.621679   -7.226105    0.000119
    108          1           0        7.976823   -7.186744    0.889273
    109          1           0        7.976482   -7.186758   -0.888788
    110          6           0        9.414614   -8.521124   -0.000023
    111          1           0       10.060568   -8.560131    0.888604
    112          1           0       10.060225   -8.560146   -0.888899
    113          8           0        8.484680   -9.587182    0.000166
    114          6           0        9.093633  -10.865962    0.000056
    115          1           0        9.726255  -11.000578    0.888671
    116          1           0        9.725915  -11.000586   -0.888799
    117          6           0        7.984645  -11.903062    0.000273
    118          1           0        7.350800  -11.766510   -0.888470
    119          1           0        7.351137  -11.766498    0.889255
    120          8           0        8.594933  -13.178007    0.000165
    121          6           0        7.659848  -14.237012    0.000346
    122          1           0        7.017623  -14.209543   -0.891788
    123          1           0        8.226691  -15.168386    0.000244
    124          1           0        7.017958  -14.209535    0.892722
    125          6           0       -5.662764   -3.798914    0.001328
    126          1           0       -5.049714   -3.950351   -0.893625
    127          1           0       -5.049647   -3.950145    0.896272
    128          1           0       -6.483553   -4.514088    0.001453
    129          6           0        0.097098    3.812800    0.000016
    130          1           0       -0.515824    3.964765   -0.894869
    131          1           0       -0.515552    3.964398    0.895146
    132          1           0        0.918895    4.526722    0.000025
 ---------------------------------------------------------------------

 The electronic state is 1-A.
 Alpha  occ. eigenvalues --  -88.87071 -88.86887 -88.86884 -88.86795 -88.86772
 Alpha  occ. eigenvalues --  -88.86759 -88.86745 -88.86723 -19.15763 -19.15679
 Alpha  occ. eigenvalues --  -19.15639 -19.15591 -19.15590 -19.15584 -19.15499
 Alpha  occ. eigenvalues --  -19.15417 -19.13292 -19.13052 -19.12851 -19.12660
 Alpha  occ. eigenvalues --  -19.12398 -19.12259 -10.23371 -10.23361 -10.23298
 Alpha  occ. eigenvalues --  -10.23292 -10.23273 -10.23254 -10.23246 -10.23184
 Alpha  occ. eigenvalues --  -10.23112 -10.23047 -10.23007 -10.22978 -10.22942
 Alpha  occ. eigenvalues --  -10.22939 -10.22888 -10.22797 -10.22719 -10.22476
 Alpha  occ. eigenvalues --  -10.22368 -10.22193 -10.22116 -10.21991 -10.21959
 Alpha  occ. eigenvalues --  -10.21831 -10.21797 -10.21670 -10.21543 -10.21416
 Alpha  occ. eigenvalues --  -10.20887 -10.20825 -10.20815 -10.20785 -10.20768
 Alpha  occ. eigenvalues --  -10.20713 -10.20475 -10.20467 -10.20432 -10.20417
 Alpha  occ. eigenvalues --  -10.20410 -10.20382 -10.20277 -10.20188 -10.19489
 Alpha  occ. eigenvalues --  -10.19329 -10.17600 -10.17472 -10.17434 -10.17376
 Alpha  occ. eigenvalues --  -10.17359 -10.17352 -10.17337 -10.17276  -7.95653
 Alpha  occ. eigenvalues --   -7.95481  -7.95461  -7.95383  -7.95360  -7.95348
 Alpha  occ. eigenvalues --   -7.95333  -7.95312  -5.91965  -5.91810  -5.91772
 Alpha  occ. eigenvalues --   -5.91713  -5.91691  -5.91678  -5.91664  -5.91641
 Alpha  occ. eigenvalues --   -5.91577  -5.91426  -5.91384  -5.91327  -5.91306
 Alpha  occ. eigenvalues --   -5.91293  -5.91278  -5.91256  -5.91222  -5.91032
 Alpha  occ. eigenvalues --   -5.91009  -5.90909  -5.90885  -5.90873  -5.90859
 Alpha  occ. eigenvalues --   -5.90842  -1.07627  -1.07541  -1.07414  -1.07382
 Alpha  occ. eigenvalues --   -1.07323  -1.07307  -1.07244  -1.07159  -1.05300
 Alpha  occ. eigenvalues --   -1.05085  -1.04555  -1.04364  -1.03755  -1.03592
 Alpha  occ. eigenvalues --   -0.89688  -0.89453  -0.89055  -0.88366  -0.87965
 Alpha  occ. eigenvalues --   -0.87215  -0.86531  -0.85989  -0.80018  -0.79901
 Alpha  occ. eigenvalues --   -0.79417  -0.78596  -0.77636  -0.77407  -0.76688
 Alpha  occ. eigenvalues --   -0.76108  -0.75611  -0.75295  -0.75190  -0.74396
 Alpha  occ. eigenvalues --   -0.74259  -0.73938  -0.73828  -0.73484  -0.72293
 Alpha  occ. eigenvalues --   -0.72173  -0.72105  -0.71911  -0.70803  -0.70348
 Alpha  occ. eigenvalues --   -0.69940  -0.69800  -0.69166  -0.68445  -0.67415
 Alpha  occ. eigenvalues --   -0.67089  -0.66540  -0.65383  -0.63476  -0.63197
 Alpha  occ. eigenvalues --   -0.61983  -0.61693  -0.61475  -0.61236  -0.61175
 Alpha  occ. eigenvalues --   -0.60974  -0.60524  -0.59165  -0.58772  -0.57851
 Alpha  occ. eigenvalues --   -0.57124  -0.56651  -0.56026  -0.55686  -0.55397
 Alpha  occ. eigenvalues --   -0.55158  -0.55037  -0.53913  -0.53800  -0.53720
 Alpha  occ. eigenvalues --   -0.53506  -0.53451  -0.52656  -0.51840  -0.51816
 Alpha  occ. eigenvalues --   -0.51773  -0.51602  -0.51475  -0.50474  -0.50301
 Alpha  occ. eigenvalues --   -0.49921  -0.49439  -0.49000  -0.48450  -0.48402
 Alpha  occ. eigenvalues --   -0.48396  -0.48220  -0.47793  -0.47784  -0.47750
 Alpha  occ. eigenvalues --   -0.47675  -0.47647  -0.47533  -0.47518  -0.47498
 Alpha  occ. eigenvalues --   -0.47409  -0.47130  -0.47105  -0.46898  -0.46670
 Alpha  occ. eigenvalues --   -0.46114  -0.45507  -0.45241  -0.45190  -0.45083
 Alpha  occ. eigenvalues --   -0.44994  -0.44950  -0.44748  -0.44382  -0.44346
 Alpha  occ. eigenvalues --   -0.43830  -0.43783  -0.43576  -0.43354  -0.43020
 Alpha  occ. eigenvalues --   -0.42740  -0.42553  -0.42395  -0.42261  -0.41786
 Alpha  occ. eigenvalues --   -0.41326  -0.41298  -0.40970  -0.40727  -0.40558
 Alpha  occ. eigenvalues --   -0.40462  -0.40345  -0.40237  -0.40155  -0.39515
 Alpha  occ. eigenvalues --   -0.39298  -0.39090  -0.38646  -0.38432  -0.38160
 Alpha  occ. eigenvalues --   -0.37645  -0.37511  -0.37091  -0.37051  -0.36921
 Alpha  occ. eigenvalues --   -0.36759  -0.36551  -0.36174  -0.36085  -0.36021
 Alpha  occ. eigenvalues --   -0.35861  -0.35611  -0.35555  -0.35296  -0.35050
 Alpha  occ. eigenvalues --   -0.34940  -0.34461  -0.34370  -0.34149  -0.34095
 Alpha  occ. eigenvalues --   -0.33685  -0.33372  -0.33063  -0.32966  -0.32935
 Alpha  occ. eigenvalues --   -0.32859  -0.32791  -0.32735  -0.32650  -0.32563
 Alpha  occ. eigenvalues --   -0.32550  -0.32398  -0.31848  -0.31831  -0.31795
 Alpha  occ. eigenvalues --   -0.31789  -0.31786  -0.31725  -0.29396  -0.28384
 Alpha  occ. eigenvalues --   -0.27510  -0.27283  -0.26938  -0.26908  -0.26722
 Alpha  occ. eigenvalues --   -0.26287  -0.26128  -0.25594  -0.24204  -0.24140
 Alpha  occ. eigenvalues --   -0.24022  -0.23890  -0.23357  -0.23188  -0.23054
 Alpha  occ. eigenvalues --   -0.22985  -0.20563  -0.18963  -0.16944  -0.15122
 Alpha virt. eigenvalues --   -0.07490  -0.05758  -0.03801  -0.01450  -0.00673
 Alpha virt. eigenvalues --    0.01636   0.01793   0.01905   0.02126   0.02235
 Alpha virt. eigenvalues --    0.02559   0.02751   0.02923   0.02982   0.03270

 Mulliken charges:
               1
     1  C   -0.227570
     2  C    0.218065
     3  C   -0.065013
     4  C   -0.234759
     5  S    0.341352
     6  O   -0.372955
     7  H    0.114878
     8  C   -0.228669
     9  C    0.218254
    10  C   -0.065218
    11  C   -0.232078
    12  S    0.341399
    13  O   -0.372951
    14  H    0.114849
    15  C   -0.132589
    16  H    0.129411
    17  H    0.114452
    18  H    0.114449
    19  C   -0.210798
    20  C    0.219572
    21  C   -0.064626
    22  C   -0.238742
    23  S    0.340641
    24  O   -0.373193
    25  H    0.114722
    26  C   -0.235941
    27  C    0.220805
    28  C   -0.092998
    29  C   -0.298953
    30  S    0.309281
    31  O   -0.369293
    32  H    0.105357
    33  C   -0.132896
    34  H    0.113720
    35  H    0.113722
    36  H    0.130944
    37  C   -0.129997
    38  H    0.129015
    39  H    0.112119
    40  H    0.112124
    41  H    0.126851
    42  C   -0.247514
    43  C    0.234077
    44  C   -0.090826
    45  C   -0.303207
    46  S    0.312840
    47  O   -0.382725
    48  H    0.108984
    49  C   -0.223554
    50  C    0.239694
    51  C   -0.071663
    52  C   -0.241239
    53  S    0.347713
    54  O   -0.386286
    55  H    0.118883
    56  H    0.127553
    57  C   -0.228919
    58  C    0.218600
    59  C   -0.066413
    60  C   -0.231006
    61  S    0.345195
    62  O   -0.372756
    63  H    0.113468
    64  C   -0.228113
    65  C    0.218889
    66  C   -0.065063
    67  C   -0.234198
    68  S    0.340704
    69  O   -0.372934
    70  H    0.115158
    71  C   -0.132420
    72  H    0.113968
    73  H    0.113968
    74  H    0.129589
    75  C   -0.050749
    76  H    0.118814
    77  H    0.118814
    78  C    0.017925
    79  H    0.105695
    80  H    0.105695
    81  O   -0.392000
    82  C    0.000731
    83  H    0.098554
    84  H    0.098554
    85  C    0.002551
    86  H    0.096618
    87  H    0.096618
    88  O   -0.390003
    89  C    0.000667
    90  H    0.097541
    91  H    0.097541
    92  C   -0.008035
    93  H    0.094278
    94  H    0.094278
    95  O   -0.370502
    96  C   -0.102012
    97  H    0.089307
    98  H    0.115536
    99  H    0.089307
   100  C   -0.043094
   101  H    0.117110
   102  H    0.117110
   103  C    0.013719
   104  H    0.104924
   105  H    0.104928
   106  O   -0.391236
   107  C    0.000431
   108  H    0.097614
   109  H    0.097615
   110  C    0.002758
   111  H    0.097142
   112  H    0.097142
   113  O   -0.390662
   114  C    0.000380
   115  H    0.098123
   116  H    0.098123
   117  C   -0.007816
   118  H    0.093873
   119  H    0.093873
   120  O   -0.370212
   121  C   -0.102116
   122  H    0.089303
   123  H    0.116045
   124  H    0.089303
   125  C   -0.132631
   126  H    0.114410
   127  H    0.114409
   128  H    0.129410
   129  C   -0.132941
   130  H    0.114541
   131  H    0.114547
   132  H    0.130961
 Sum of Mulliken charges =  -0.00000

 Dipole moment (field-independent basis, Debye):
    X=             -0.3236    Y=              0.0584    Z=             -0.0004  Tot=              0.3288
 Quadrupole moment (field-independent basis, Debye-Ang):
   XX=           -431.0947   YY=           -384.1771   ZZ=           -507.6396
   XY=             -6.8594   XZ=              0.0011   YZ=              0.0143

 ESP charges:
               1
     1  C   -0.023143
     2  C    0.246100
     3  C   -0.343439
     4  C    0.097270
     5  S   -0.187642
     6  O   -0.182964
     7  H    0.231882
     8  C    0.015753
     9  C    0.211692
    10  C   -0.338981
    11  C    0.114211
    12  S   -0.197768
    13  O   -0.176853
    14  H    0.227174
    15  C   -0.001825
    16  H    0.082044
    17  H    0.037869
    18  H    0.037952
    19  C   -0.003774
    20  C    0.268422
    21  C   -0.345713
    22  C    0.103852
    23  S   -0.187917
    24  O   -0.270266
    25  H    0.230084
    26  C   -0.094639
    27  C    0.292394
    28  C   -0.265724
    29  C   -0.162472
    30  S   -0.024224
    31  O   -0.191639
    32  H    0.144192
    33  C    0.091094
    34  H    0.018273
    35  H    0.018174
    36  H    0.060436
    37  C   -0.038476
    38  H    0.088536
    39  H    0.052588
    40  H    0.052304
    41  H    0.167222
    42  C   -0.084508
    43  C    0.326538
    44  C   -0.286453
    45  C   -0.156701
    46  S   -0.036183
    47  O   -0.296296
    48  H    0.143270
    49  C   -0.002411
    50  C    0.328951
    51  C   -0.385221
    52  C    0.122459
    53  S   -0.194263
    54  O   -0.375780
    55  H    0.229830
    56  H    0.173462
    57  C   -0.011150
    58  C    0.214018
    59  C   -0.311416
    60  C    0.090823
    61  S   -0.176607
    62  O   -0.170488
    63  H    0.209928
    64  C   -0.004916
    65  C    0.249304
    66  C   -0.365550
    67  C    0.121448
    68  S   -0.198604
    69  O   -0.190898
    70  H    0.235861
    71  C   -0.001719
    72  H    0.035781
    73  H    0.036085
    74  H    0.082616
    75  C    0.210665
    76  H    0.001240
    77  H    0.001174
    78  C    0.427353
    79  H   -0.041960
    80  H   -0.041963
    81  O   -0.576149
    82  C    0.292368
    83  H   -0.019661
    84  H   -0.019709
    85  C    0.409179
    86  H   -0.038386
    87  H   -0.038174
    88  O   -0.575811
    89  C    0.279084
    90  H   -0.019479
    91  H   -0.019512
    92  C    0.324493
    93  H   -0.015634
    94  H   -0.015640
    95  O   -0.472128
    96  C    0.190672
    97  H   -0.011510
    98  H    0.036364
    99  H   -0.011529
   100  C    0.116740
   101  H    0.031609
   102  H    0.031473
   103  C    0.401318
   104  H   -0.027883
   105  H   -0.027697
   106  O   -0.562141
   107  C    0.262735
   108  H   -0.014567
   109  H   -0.014610
   110  C    0.438932
   111  H   -0.045129
   112  H   -0.045127
   113  O   -0.577829
   114  C    0.266092
   115  H   -0.016519
   116  H   -0.016502
   117  C    0.326368
   118  H   -0.014721
   119  H   -0.014671
   120  O   -0.470544
   121  C    0.187666
   122  H   -0.010423
   123  H    0.036735
   124  H   -0.010433
   125  C   -0.011894
   126  H    0.038227
   127  H    0.038305
   128  H    0.086002
   129  C    0.012023
   130  H    0.033920
   131  H    0.033949
   132  H    0.079983
 Sum of ESP charges =   0.00000

 Normal termination of Gaussian 16 at Tue Jan 14 10:59:22 2020.
