 Gaussian 16, Revision A.03,
 Gaussian 16:  ES64L-G16RevA.03 25-Dec-2016

 ----------------------------
 #p Pop=CHelpG b3lyp/6-311g**
 ----------------------------

 -----------------------
 OBT_2m_eth_opt_freq.gjf
 -----------------------
 Symbolic Z-matrix:
 Charge =  0 Multiplicity = 1

                         Standard orientation:
 ---------------------------------------------------------------------
 Center     Atomic      Atomic             Coordinates (Angstroms)
 Number     Number       Type             X           Y           Z
 ---------------------------------------------------------------------
      1          6           0        4.672489    0.117566    0.000000
      2          6           0        5.342239   -1.093793    0.000000
      3          6           0        6.769540   -1.010805    0.000000
      4          6           0        7.234039    0.269572    0.000000
      5         16           0        5.904279    1.479249    0.000000
      6          8           0        4.600100   -2.271194    0.000000
      7          1           0        7.420523   -1.871097    0.000000
      8          6           0        3.269362    0.368495    0.000000
      9          6           0        2.596608    1.578865    0.000000
     10          6           0        1.179336    1.503842    0.000000
     11          6           0        0.678830    0.221592    0.000000
     12         16           0        2.042569   -0.994205    0.000000
     13          8           0        3.340737    2.753259    0.000000
     14          1           0        0.538378    2.371098    0.000000
     15          6           0        5.304646   -3.540676    0.000000
     16          1           0        5.922274   -3.647846    0.895000
     17          1           0        5.922274   -3.647846   -0.895000
     18          6           0        2.640205    4.026727    0.000000
     19          1           0        2.023581    4.134893   -0.895000
     20          1           0        2.023581    4.134893    0.895000
     21          1           0        8.253251    0.612994    0.000000
     22          6           0       -3.269267   -0.368547    0.000000
     23          6           0       -2.596513   -1.578917    0.000000
     24          6           0       -1.179237   -1.502894    0.000000
     25          6           0       -0.678731   -0.220644    0.000000
     26         16           0       -2.042474    0.994153    0.000000
     27          8           0       -3.340642   -2.753311    0.000000
     28          1           0       -0.538279   -2.370150    0.000000
     29          6           0       -4.672394   -0.117618    0.000000
     30          6           0       -5.342148    1.092741    0.000000
     31          6           0       -6.769448    1.009753    0.000000
     32          6           0       -7.233944   -0.269624    0.000000
     33         16           0       -5.904184   -1.479301    0.000000
     34          8           0       -4.601005    2.271146    0.000000
     35          1           0       -7.420431    1.870044    0.000000
     36          6           0       -2.639110   -4.026783    0.000000
     37          1           0       -2.022486   -4.134949    0.894000
     38          1           0       -2.023486   -4.134945   -0.895000
     39          6           0       -5.305551    3.540628    0.000000
     40          1           0       -5.922179    3.647794   -0.894000
     41          1           0       -5.922179    3.647794    0.895000
     42          1           0       -8.252156   -0.613050    0.000000
     43          6           0       -3.748713   -5.094669    0.000000
     44          1           0       -3.306161   -6.068858   -0.001956
     45          1           0       -4.354293   -4.979781    0.874628
     46          1           0       -4.356642   -4.977340   -0.872672
     47          6           0        4.200627   -4.614334    0.000000
     48          1           0        3.594456   -4.502605    0.874628
     49          1           0        3.592094   -4.500176   -0.872672
     50          1           0        4.648251   -5.586202   -0.001956
     51          6           0        3.749122    5.095326    0.000000
     52          1           0        3.305944    6.069232   -0.000196
     53          1           0        4.355834    4.979728    0.873749
     54          1           0        4.356069    4.979485   -0.873554
     55          6           0       -4.201531    4.614285    0.000000
     56          1           0       -3.595361    4.502557    0.874628
     57          1           0       -3.592999    4.500128   -0.872672
     58          1           0       -4.649156    5.586154   -0.001956
 ---------------------------------------------------------------------

 SCF Done:  E(RB3LYP) =  -2824.18336223     A.U. after   15 cycles

 The electronic state is 1-A.
 Alpha  occ. eigenvalues --  -88.86943 -88.86933 -88.86713 -88.86711 -19.15115
 Alpha  occ. eigenvalues --  -19.15099 -19.14970 -19.14968 -10.23404 -10.23381
 Alpha  occ. eigenvalues --  -10.23274 -10.23271 -10.23250 -10.23238 -10.23191
 Alpha  occ. eigenvalues --  -10.23181 -10.21177 -10.21135 -10.20723 -10.20719
 Alpha  occ. eigenvalues --  -10.20667 -10.20660 -10.19867 -10.19848 -10.17780
 Alpha  occ. eigenvalues --  -10.17767 -10.17540 -10.17537 -10.16364 -10.16359
 Alpha  occ. eigenvalues --  -10.16123 -10.16120  -7.95304  -7.95295  -7.95092
 Alpha  occ. eigenvalues --   -7.95090  -5.91645  -5.91636  -5.91449  -5.91447
 Alpha  occ. eigenvalues --   -5.91282  -5.91274  -5.91091  -5.91089  -5.90835
 Alpha  occ. eigenvalues --   -5.90826  -5.90581  -5.90580  -1.05448  -1.05428
 Alpha  occ. eigenvalues --   -1.05318  -1.05308  -0.87968  -0.86987  -0.86053
 Alpha  occ. eigenvalues --   -0.84746  -0.79052  -0.77826  -0.77801  -0.77212
 Alpha  occ. eigenvalues --   -0.76229  -0.75644  -0.72112  -0.71989  -0.71445
 Alpha  occ. eigenvalues --   -0.71052  -0.70155  -0.68452  -0.64590  -0.63725
 Alpha  occ. eigenvalues --   -0.63682  -0.62885  -0.61254  -0.59348  -0.57823
 Alpha  occ. eigenvalues --   -0.56419  -0.55192  -0.54828  -0.54721  -0.53332
 Alpha  occ. eigenvalues --   -0.53088  -0.51739  -0.48918  -0.48907  -0.48710
 Alpha  occ. eigenvalues --   -0.48697  -0.48619  -0.47175  -0.45875  -0.45735
 Alpha  occ. eigenvalues --   -0.45313  -0.44180  -0.43346  -0.42926  -0.42915
 Alpha  occ. eigenvalues --   -0.41624  -0.41235  -0.40401  -0.40134  -0.40107
 Alpha  occ. eigenvalues --   -0.40080  -0.39873  -0.39792  -0.39525  -0.39035
 Alpha  occ. eigenvalues --   -0.38913  -0.38800  -0.37948  -0.37647  -0.37547
 Alpha  occ. eigenvalues --   -0.36935  -0.36295  -0.36188  -0.35836  -0.35083
 Alpha  occ. eigenvalues --   -0.34356  -0.34004  -0.33507  -0.32641  -0.32348
 Alpha  occ. eigenvalues --   -0.32192  -0.32021  -0.31856  -0.31106  -0.30829
 Alpha  occ. eigenvalues --   -0.28522  -0.26085  -0.23904  -0.23778  -0.23301
 Alpha  occ. eigenvalues --   -0.23126  -0.19695  -0.16244
 Alpha virt. eigenvalues --   -0.06853  -0.02707  -0.00285   0.00366   0.00732
 Alpha virt. eigenvalues --    0.01446   0.01575   0.03501   0.04110   0.04132
 Alpha virt. eigenvalues --    0.04412   0.04699   0.04989   0.05232   0.06290

 Mulliken charges:
               1
     1  C   -0.231988
     2  C    0.246352
     3  C   -0.081122
     4  C   -0.296044
     5  S    0.276385
     6  O   -0.399075
     7  H    0.106598
     8  C   -0.214041
     9  C    0.249603
    10  C   -0.061545
    11  C   -0.229481
    12  S    0.310416
    13  O   -0.403620
    14  H    0.115879
    15  C   -0.042323
    16  H    0.113047
    17  H    0.113042
    18  C   -0.048215
    19  H    0.114883
    20  H    0.114885
    21  H    0.129911
    22  C   -0.214335
    23  C    0.249760
    24  C   -0.061778
    25  C   -0.229298
    26  S    0.310504
    27  O   -0.403736
    28  H    0.115788
    29  C   -0.231649
    30  C    0.246378
    31  C   -0.081100
    32  C   -0.295682
    33  S    0.275978
    34  O   -0.399466
    35  H    0.106514
    36  C   -0.048147
    37  H    0.115072
    38  H    0.115005
    39  C   -0.041997
    40  H    0.113161
    41  H    0.113007
    42  H    0.129856
    43  C   -0.293511
    44  H    0.104731
    45  H    0.124440
    46  H    0.124535
    47  C   -0.297034
    48  H    0.123982
    49  H    0.124054
    50  H    0.105176
    51  C   -0.293431
    52  H    0.104792
    53  H    0.124460
    54  H    0.124467
    55  C   -0.297161
    56  H    0.123964
    57  H    0.124014
    58  H    0.105143
 Sum of Mulliken charges =  -0.00000

 Dipole moment (field-independent basis, Debye):
    X=              0.0006    Y=             -0.0016    Z=             -0.0005  Tot=              0.0018
 Quadrupole moment (field-independent basis, Debye-Ang):
   XX=           -186.7345   YY=           -173.4590   ZZ=           -227.1614
   XY=            -19.8134   XZ=              0.0041   YZ=             -0.0013

 ESP charges:
               1
     1  C   -0.065227
     2  C    0.263681
     3  C   -0.242740
     4  C   -0.186717
     5  S   -0.025201
     6  O   -0.266631
     7  H    0.131869
     8  C   -0.018132
     9  C    0.265213
    10  C   -0.322573
    11  C    0.083274
    12  S   -0.172007
    13  O   -0.350928
    14  H    0.217097
    15  C    0.271856
    16  H   -0.009184
    17  H   -0.009225
    18  C    0.380141
    19  H   -0.042955
    20  H   -0.042950
    21  H    0.180841
    22  C   -0.017540
    23  C    0.260423
    24  C   -0.318345
    25  C    0.085223
    26  S   -0.172512
    27  O   -0.348847
    28  H    0.215239
    29  C   -0.063899
    30  C    0.263863
    31  C   -0.240627
    32  C   -0.189137
    33  S   -0.025734
    34  O   -0.267948
    35  H    0.130886
    36  C    0.378966
    37  H   -0.042456
    38  H   -0.042557
    39  C    0.272968
    40  H   -0.009100
    41  H   -0.009161
    42  H    0.181700
    43  C   -0.126538
    44  H    0.019754
    45  H    0.039932
    46  H    0.040117
    47  C   -0.129527
    48  H    0.046724
    49  H    0.046843
    50  H    0.022521
    51  C   -0.126207
    52  H    0.019703
    53  H    0.039861
    54  H    0.039868
    55  C   -0.130639
    56  H    0.046954
    57  H    0.047068
    58  H    0.022659
 Sum of ESP charges =   0.00000

 Normal termination of Gaussian 16 at Fri Jan 10 16:03:59 2020.
