 Gaussian 16, Revision A.03,
 Gaussian 16:  ES64L-G16RevA.03 25-Dec-2016

 ------------------------------
 #p opt pop=ChelpG b3lyp/6-311g
 ------------------------------

 --------------
 OBT_4m_opt.gjf
 --------------
 Symbolic Z-matrix:
 Charge =  0 Multiplicity = 1

 SCF Done:  E(RB3LYP) =  -5331.61339558     A.U. after   15 cycles
 SCF Done:  E(RB3LYP) =  -5331.65234674     A.U. after   12 cycles
 SCF Done:  E(RB3LYP) =  -5331.67479015     A.U. after   13 cycles
 SCF Done:  E(RB3LYP) =  -5331.68292485     A.U. after   13 cycles
 SCF Done:  E(RB3LYP) =  -5331.68362204     A.U. after   12 cycles
 SCF Done:  E(RB3LYP) =  -5331.68368931     A.U. after   10 cycles
 SCF Done:  E(RB3LYP) =  -5331.68370026     A.U. after   10 cycles
 SCF Done:  E(RB3LYP) =  -5331.68370126     A.U. after    8 cycles
 Optimization completed.
    -- Stationary point found.

                         Standard orientation:
 ---------------------------------------------------------------------
 Center     Atomic      Atomic             Coordinates (Angstroms)
 Number     Number       Type             X           Y           Z
 ---------------------------------------------------------------------
      1          6           0        3.284212    0.208371   -0.000013
      2          6           0        2.666842    1.452834   -0.000053
      3          6           0        1.251298    1.445283   -0.000053
      4          6           0        0.687383    0.186939   -0.000014
      5         16           0        1.991690   -1.094224    0.000028
      6          8           0        3.468172    2.588663   -0.000088
      7          1           0        0.652138    2.342194   -0.000082
      8          6           0        4.667628   -0.104054   -0.000003
      9          6           0        5.285063   -1.348107    0.000036
     10          6           0        6.701220   -1.340082    0.000036
     11          6           0        7.264147   -0.082164   -0.000004
     12         16           0        5.960284    1.198663   -0.000045
     13          8           0        4.484394   -2.484468    0.000072
     14          1           0        7.300607   -2.236828    0.000063
     15          6           0        2.829632    3.894483   -0.000132
     16          1           0        2.219037    4.031447    0.894476
     17          1           0        2.219039    4.031388   -0.894751
     18          1           0        3.646024    4.608571   -0.000155
     19          6           0        5.123369   -3.790001    0.000113
     20          1           0        4.307215   -4.504377    0.000136
     21          1           0        5.734002   -3.926822   -0.894499
     22          1           0        5.734002   -3.926765    0.894734
     23          6           0       11.235430    0.312857   -0.000005
     24          6           0       10.621997    1.555312   -0.000055
     25          6           0        9.203697    1.549351   -0.000062
     26          6           0        8.640413    0.292504   -0.000015
     27         16           0        9.943876   -0.988423    0.000032
     28          8           0       11.423196    2.691591   -0.000103
     29          1           0        8.605866    2.447114   -0.000100
     30          6           0       12.624259   -0.005462    0.000016
     31          6           0       13.234160   -1.247965    0.000067
     32          6           0       14.664090   -1.234449    0.000077
     33          6           0       15.190030    0.021145    0.000033
     34         16           0       13.921097    1.294313   -0.000022
     35          8           0       12.436177   -2.387939    0.000108
     36          1           0       15.271927   -2.125323    0.000115
     37          6           0       10.785827    3.997851   -0.000039
     38          1           0       10.175429    4.135919    0.894608
     39          1           0       10.175377    4.135982   -0.894640
     40          1           0       11.603165    4.710853   -0.000040
     41          6           0       13.078346   -3.690919    0.000106
     42          1           0       12.264403   -4.407929    0.000118
     43          1           0       13.689253   -3.827667   -0.894581
     44          1           0       13.689269   -3.827661    0.894783
     45          1           0       16.224115    0.314538    0.000029
     46          6           0      -12.624259    0.005465    0.000010
     47          6           0      -13.234160    1.247968   -0.000019
     48          6           0      -14.664089    1.234452   -0.000010
     49          6           0      -15.190030   -0.021140    0.000027
     50         16           0      -13.921098   -1.294310    0.000054
     51          8           0      -12.436177    2.387941   -0.000055
     52          1           0      -15.271926    2.125326   -0.000030
     53          6           0      -11.235430   -0.312855    0.000010
     54          6           0      -10.622000   -1.555310    0.000039
     55          6           0       -9.203700   -1.549351    0.000030
     56          6           0       -8.640414   -0.292503   -0.000007
     57         16           0       -9.943876    0.988423   -0.000032
     58          8           0      -11.423199   -2.691588    0.000074
     59          1           0       -8.605869   -2.447114    0.000049
     60          6           0      -13.078346    3.690921   -0.000087
     61          1           0      -13.689256    3.827691    0.894594
     62          1           0      -13.689266    3.827641   -0.894769
     63          1           0      -12.264403    4.407930   -0.000112
     64          6           0      -10.785829   -3.997849    0.000104
     65          1           0      -11.603167   -4.710851    0.000128
     66          1           0      -10.175410   -4.135971   -0.894519
     67          1           0      -10.175399   -4.135924    0.894727
     68          1           0      -16.224113   -0.314534    0.000041
     69          6           0       -4.667628    0.104051   -0.000026
     70          6           0       -5.285063    1.348104   -0.000068
     71          6           0       -6.701220    1.340080   -0.000069
     72          6           0       -7.264148    0.082163   -0.000025
     73         16           0       -5.960286   -1.198666    0.000006
     74          8           0       -4.484392    2.484464   -0.000113
     75          1           0       -7.300607    2.236827   -0.000099
     76          6           0       -3.284212   -0.208372   -0.000010
     77          6           0       -2.666841   -1.452837    0.000035
     78          6           0       -1.251297   -1.445282    0.000039
     79          6           0       -0.687386   -0.186938   -0.000004
     80         16           0       -1.991690    1.094222   -0.000044
     81          8           0       -3.468172   -2.588667    0.000074
     82          1           0       -0.652133   -2.342190    0.000072
     83          6           0       -5.123364    3.789998   -0.000043
     84          1           0       -5.733969    3.926758    0.894597
     85          1           0       -5.734023    3.926827   -0.894636
     86          1           0       -4.307209    4.504372   -0.000042
     87          6           0       -2.829628   -3.894486    0.000073
     88          1           0       -3.646017   -4.608577    0.000083
     89          1           0       -2.219040   -4.031422   -0.894546
     90          1           0       -2.219026   -4.031416    0.894682
 ---------------------------------------------------------------------

 The electronic state is 1-A.
 Alpha  occ. eigenvalues --  -88.87803 -88.87803 -88.87627 -88.87627 -88.87622
 Alpha  occ. eigenvalues --  -88.87622 -88.87595 -88.87595 -19.15769 -19.15769
 Alpha  occ. eigenvalues --  -19.15756 -19.15756 -19.15737 -19.15737 -19.15530
 Alpha  occ. eigenvalues --  -19.15530 -10.24591 -10.24591 -10.24588 -10.24588
 Alpha  occ. eigenvalues --  -10.24433 -10.24433 -10.24399 -10.24399 -10.23524
 Alpha  occ. eigenvalues --  -10.23524 -10.23415 -10.23415 -10.23392 -10.23392
 Alpha  occ. eigenvalues --  -10.23216 -10.23216 -10.22340 -10.22331 -10.22331
 Alpha  occ. eigenvalues --  -10.22298 -10.22260 -10.22260 -10.22128 -10.22128
 Alpha  occ. eigenvalues --  -10.22081 -10.22081 -10.21971 -10.21971 -10.21880
 Alpha  occ. eigenvalues --  -10.21880 -10.20729 -10.20729 -10.18716 -10.18716
 Alpha  occ. eigenvalues --  -10.18567 -10.18567 -10.18564 -10.18564 -10.18493
 Alpha  occ. eigenvalues --  -10.18493  -7.96455  -7.96455  -7.96275  -7.96275
 Alpha  occ. eigenvalues --   -7.96270  -7.96270  -7.96247  -7.96247  -5.92791
 Alpha  occ. eigenvalues --   -5.92791  -5.92636  -5.92635  -5.92630  -5.92630
 Alpha  occ. eigenvalues --   -5.92604  -5.92604  -5.92381  -5.92381  -5.92230
 Alpha  occ. eigenvalues --   -5.92230  -5.92225  -5.92225  -5.92199  -5.92199
 Alpha  occ. eigenvalues --   -5.91816  -5.91816  -5.91594  -5.91594  -5.91589
 Alpha  occ. eigenvalues --   -5.91589  -5.91570  -5.91570  -1.06694  -1.06693
 Alpha  occ. eigenvalues --   -1.06612  -1.06611  -1.06595  -1.06595  -1.06430
 Alpha  occ. eigenvalues --   -1.06430  -0.89773  -0.89529  -0.89156  -0.88465
 Alpha  occ. eigenvalues --   -0.88118  -0.87370  -0.86676  -0.86166  -0.80426
 Alpha  occ. eigenvalues --   -0.79498  -0.78347  -0.77131  -0.76398  -0.75743
 Alpha  occ. eigenvalues --   -0.75481  -0.75449  -0.74678  -0.74643  -0.74429
 Alpha  occ. eigenvalues --   -0.74251  -0.72780  -0.72709  -0.72568  -0.72542
 Alpha  occ. eigenvalues --   -0.70580  -0.70459  -0.70404  -0.69924  -0.69731
 Alpha  occ. eigenvalues --   -0.68797  -0.67500  -0.66314  -0.63698  -0.62761
 Alpha  occ. eigenvalues --   -0.61847  -0.60257  -0.59944  -0.58808  -0.57869
 Alpha  occ. eigenvalues --   -0.57054  -0.55765  -0.55338  -0.54970  -0.54784
 Alpha  occ. eigenvalues --   -0.54775  -0.54209  -0.54152  -0.54042  -0.53963
 Alpha  occ. eigenvalues --   -0.53073  -0.52285  -0.51742  -0.50057  -0.49499
 Alpha  occ. eigenvalues --   -0.48614  -0.47905  -0.47670  -0.47648  -0.47635
 Alpha  occ. eigenvalues --   -0.47628  -0.47434  -0.47418  -0.47312  -0.47312
 Alpha  occ. eigenvalues --   -0.47062  -0.46994  -0.46954  -0.46925  -0.46443
 Alpha  occ. eigenvalues --   -0.45749  -0.45324  -0.45135  -0.45041  -0.44999
 Alpha  occ. eigenvalues --   -0.44722  -0.44551  -0.44231  -0.43161  -0.42911
 Alpha  occ. eigenvalues --   -0.42798  -0.41934  -0.41901  -0.41631  -0.41620
 Alpha  occ. eigenvalues --   -0.41583  -0.41519  -0.41307  -0.40902  -0.40523
 Alpha  occ. eigenvalues --   -0.39413  -0.39387  -0.38662  -0.38408  -0.37933
 Alpha  occ. eigenvalues --   -0.37493  -0.37380  -0.36562  -0.36548  -0.35805
 Alpha  occ. eigenvalues --   -0.35615  -0.35393  -0.35007  -0.34786  -0.34562
 Alpha  occ. eigenvalues --   -0.34429  -0.34407  -0.34340  -0.34337  -0.32956
 Alpha  occ. eigenvalues --   -0.32842  -0.32725  -0.32392  -0.32385  -0.32249
 Alpha  occ. eigenvalues --   -0.32222  -0.31345  -0.31304  -0.31281  -0.31236
 Alpha  occ. eigenvalues --   -0.31189  -0.31154  -0.29623  -0.28687  -0.27313
 Alpha  occ. eigenvalues --   -0.26003  -0.24513  -0.24468  -0.24270  -0.24243
 Alpha  occ. eigenvalues --   -0.23760  -0.23679  -0.23532  -0.23457  -0.20829
 Alpha  occ. eigenvalues --   -0.19305  -0.17336  -0.15514
 Alpha virt. eigenvalues --   -0.08437  -0.06556  -0.04472  -0.02030  -0.01064
 Alpha virt. eigenvalues --    0.00225   0.00412   0.00702   0.00923   0.01317
 Alpha virt. eigenvalues --    0.01896   0.02050   0.02132   0.02200   0.03124

 Mulliken charges:
               1
     1  C   -0.325900
     2  C    0.304117
     3  C   -0.087611
     4  C   -0.340292
     5  S    0.496681
     6  O   -0.539231
     7  H    0.204601
     8  C   -0.326807
     9  C    0.304765
    10  C   -0.088673
    11  C   -0.336753
    12  S    0.497279
    13  O   -0.539199
    14  H    0.204387
    15  C   -0.291409
    16  H    0.187640
    17  H    0.187640
    18  H    0.201756
    19  C   -0.291280
    20  H    0.201572
    21  H    0.187555
    22  H    0.187555
    23  C   -0.311051
    24  C    0.301705
    25  C   -0.083454
    26  C   -0.348784
    27  S    0.493229
    28  O   -0.538529
    29  H    0.204424
    30  C   -0.364854
    31  C    0.354395
    32  C   -0.069980
    33  C   -0.460937
    34  S    0.419110
    35  O   -0.535138
    36  H    0.183601
    37  C   -0.291626
    38  H    0.186624
    39  H    0.186623
    40  H    0.203472
    41  C   -0.288911
    42  H    0.202035
    43  H    0.184742
    44  H    0.184741
    45  H    0.190172
    46  C   -0.364855
    47  C    0.354395
    48  C   -0.069979
    49  C   -0.460937
    50  S    0.419109
    51  O   -0.535138
    52  H    0.183601
    53  C   -0.311050
    54  C    0.301705
    55  C   -0.083454
    56  C   -0.348784
    57  S    0.493229
    58  O   -0.538529
    59  H    0.204424
    60  C   -0.288912
    61  H    0.184742
    62  H    0.184742
    63  H    0.202035
    64  C   -0.291626
    65  H    0.203472
    66  H    0.186624
    67  H    0.186624
    68  H    0.190172
    69  C   -0.326806
    70  C    0.304764
    71  C   -0.088672
    72  C   -0.336753
    73  S    0.497278
    74  O   -0.539199
    75  H    0.204387
    76  C   -0.325901
    77  C    0.304117
    78  C   -0.087611
    79  C   -0.340294
    80  S    0.496683
    81  O   -0.539231
    82  H    0.204601
    83  C   -0.291280
    84  H    0.187556
    85  H    0.187555
    86  H    0.201572
    87  C   -0.291409
    88  H    0.201756
    89  H    0.187640
    90  H    0.187640
 Sum of Mulliken charges =  -0.00000

 Dipole moment (field-independent basis, Debye):
    X=             -0.0000    Y=              0.0000    Z=              0.0002  Tot=              0.0002
 Quadrupole moment (field-independent basis, Debye-Ang):
   XX=           -311.7775   YY=           -289.8639   ZZ=           -404.8244
   XY=            -47.3890   XZ=              0.0020   YZ=             -0.0019

 ESP charges:
               1
     1  C    0.028534
     2  C    0.265867
     3  C   -0.339647
     4  C    0.111981
     5  S   -0.231386
     6  O   -0.272271
     7  H    0.243897
     8  C   -0.019955
     9  C    0.313280
    10  C   -0.383915
    11  C    0.134215
    12  S   -0.228796
    13  O   -0.279411
    14  H    0.253462
    15  C    0.069027
    16  H    0.028509
    17  H    0.028431
    18  H    0.078703
    19  C    0.048992
    20  H    0.084058
    21  H    0.034510
    22  H    0.034399
    23  C   -0.012590
    24  C    0.369868
    25  C   -0.387853
    26  C    0.112631
    27  S   -0.220194
    28  O   -0.382850
    29  H    0.254690
    30  C   -0.085600
    31  C    0.371210
    32  C   -0.300290
    33  C   -0.135913
    34  S   -0.070421
    35  O   -0.293988
    36  H    0.157798
    37  C    0.178725
    38  H    0.004967
    39  H    0.004972
    40  H    0.053563
    41  C    0.036461
    42  H    0.082905
    43  H    0.044517
    44  H    0.044531
    45  H    0.170383
    46  C   -0.085583
    47  C    0.371213
    48  C   -0.300286
    49  C   -0.135920
    50  S   -0.070421
    51  O   -0.294020
    52  H    0.157799
    53  C   -0.012632
    54  C    0.369892
    55  C   -0.387874
    56  C    0.112619
    57  S   -0.220144
    58  O   -0.382854
    59  H    0.254705
    60  C    0.036541
    61  H    0.044501
    62  H    0.044502
    63  H    0.082882
    64  C    0.178725
    65  H    0.053564
    66  H    0.004964
    67  H    0.004972
    68  H    0.170385
    69  C   -0.019907
    70  C    0.313124
    71  C   -0.383780
    72  C    0.134211
    73  S   -0.228813
    74  O   -0.279204
    75  H    0.253332
    76  C    0.028472
    77  C    0.265812
    78  C   -0.339535
    79  C    0.111876
    80  S   -0.231352
    81  O   -0.272097
    82  H    0.243867
    83  C    0.048509
    84  H    0.034637
    85  H    0.034639
    86  H    0.084115
    87  C    0.068520
    88  H    0.078775
    89  H    0.028630
    90  H    0.028633
 Sum of ESP charges =   0.00000

 Normal termination of Gaussian 16 at Fri Jan 10 17:05:31 2020.
