 Gaussian 16, Revision A.03,
 Gaussian 16:  ES64L-G16RevA.03 25-Dec-2016

 -----------------------------------
 #p opt b3lyp/6-311g(d,p) pop=chelpg
 -----------------------------------

 ----------------------
 O3G_4m_0sc_opt_pop.gjf
 ----------------------
 Symbolic Z-matrix:
 Charge =  0 Multiplicity = 1

 SCF Done:  E(RB3LYP) =  -6355.01251452     A.U. after   14 cycles
 SCF Done:  E(RB3LYP) =  -6355.02521824     A.U. after   10 cycles
 SCF Done:  E(RB3LYP) =  -6355.02651935     A.U. after    9 cycles
 SCF Done:  E(RB3LYP) =  -6355.02659676     A.U. after    7 cycles
 SCF Done:  E(RB3LYP) =  -6355.02659771     A.U. after    6 cycles
 SCF Done:  E(RB3LYP) =  -6355.02659775     A.U. after    5 cycles
 SCF Done:  E(RB3LYP) =  -6355.02659775     A.U. after    5 cycles
 Optimization completed.
    -- Stationary point found.

                         Standard orientation:
 ---------------------------------------------------------------------
 Center     Atomic      Atomic             Coordinates (Angstroms)
 Number     Number       Type             X           Y           Z
 ---------------------------------------------------------------------
      1          6           0        2.565884   -1.968076    0.000033
      2          6           0        2.958116   -0.631721    0.000028
      3          6           0        1.889672    0.291376    0.000030
      4          6           0        0.647215   -0.311809    0.000035
      5         16           0        0.805867   -2.056105    0.000043
      6          8           0        4.284706   -0.328505    0.000023
      7          1           0        2.018332    1.363865    0.000025
      8          6           0        3.397512   -3.133738    0.000031
      9          6           0        3.002978   -4.468792    0.000035
     10          6           0        4.067585   -5.395990    0.000034
     11          6           0        5.311315   -4.796463    0.000028
     12         16           0        5.157345   -3.051773    0.000021
     13          8           0        1.674278   -4.766511    0.000042
     14          1           0        3.935340   -6.468220    0.000038
     15          6           0        1.298775   -6.137490    0.000047
     16          1           0        0.210164   -6.149779    0.000051
     17          1           0        1.667350   -6.650399   -0.894869
     18          1           0        1.667358   -6.650395    0.894962
     19          6           0        8.517249   -7.086165    0.000025
     20          6           0        8.913581   -5.754849    0.000023
     21          6           0        7.848903   -4.825063    0.000024
     22          6           0        6.605412   -5.423885    0.000027
     23         16           0        6.759247   -7.168479    0.000027
     24          8           0       10.242852   -5.458671    0.000021
     25          1           0        7.982325   -3.753024    0.000023
     26          6           0        9.350446   -8.258280    0.000025
     27          6           0        8.953071   -9.588776    0.000027
     28          6           0       10.028691  -10.519823    0.000027
     29          6           0       11.245299   -9.899616    0.000025
     30         16           0       11.108721   -8.177998    0.000023
     31          8           0        7.623515   -9.889800    0.000029
     32          1           0        9.908408  -11.593349    0.000028
     33          6           0       10.620749   -4.088239    0.000020
     34          1           0       10.253186   -3.574551    0.894900
     35          1           0       10.253183   -3.574552   -0.894860
     36          1           0       11.709360   -4.078039    0.000018
     37          6           0        7.252116  -11.261114    0.000030
     38          1           0        6.163485  -11.277160    0.000031
     39          1           0        7.621407  -11.773988   -0.894849
     40          1           0        7.621408  -11.773986    0.894909
     41          1           0       12.221722  -10.358365    0.000025
     42          6           0       -9.350483    8.258209    0.000046
     43          6           0       -8.953121    9.588709    0.000053
     44          6           0      -10.028751   10.519744    0.000053
     45          6           0      -11.245352    9.899526    0.000047
     46         16           0      -11.108758    8.177909    0.000042
     47          8           0       -7.623568    9.889744    0.000057
     48          1           0       -9.908478   11.593271    0.000058
     49          6           0       -8.517271    7.086104    0.000043
     50          6           0       -8.913586    5.754782    0.000036
     51          6           0       -7.848895    4.825012    0.000034
     52          6           0       -6.605412    5.423850    0.000040
     53         16           0       -6.759272    7.168442    0.000047
     54          8           0      -10.242853    5.458585    0.000031
     55          1           0       -7.982300    3.752971    0.000029
     56          6           0       -7.252181   11.261062    0.000064
     57          1           0       -7.621480   11.773928    0.894945
     58          1           0       -7.621475   11.773936   -0.894814
     59          1           0       -6.163550   11.277117    0.000067
     60          6           0      -10.620729    4.088145    0.000025
     61          1           0      -11.709340    4.077930    0.000022
     62          1           0      -10.253154    3.574470   -0.894857
     63          1           0      -10.253158    3.574462    0.894904
     64          1           0      -12.221779   10.358265    0.000046
     65          6           0       -3.397479    3.133747    0.000041
     66          6           0       -3.002965    4.468807    0.000045
     67          6           0       -4.067585    5.395990    0.000045
     68          6           0       -5.311307    4.796446    0.000041
     69         16           0       -5.157313    3.051757    0.000037
     70          8           0       -1.674269    4.766549    0.000048
     71          1           0       -3.935355    6.468221    0.000047
     72          6           0       -2.565846    1.968089    0.000040
     73          6           0       -2.958078    0.631735    0.000036
     74          6           0       -1.889632   -0.291362    0.000034
     75          6           0       -0.647176    0.311825    0.000036
     76         16           0       -0.805828    2.056120    0.000043
     77          8           0       -4.284668    0.328522    0.000034
     78          1           0       -2.018292   -1.363850    0.000030
     79          6           0       -1.298792    6.137534    0.000053
     80          1           0       -1.667382    6.650432    0.894969
     81          1           0       -1.667378    6.650438   -0.894862
     82          1           0       -0.210181    6.149843    0.000055
     83          6           0        4.665197    1.050953    0.000007
     84          1           0        4.253184    1.544696   -0.889162
     85          1           0        4.253194    1.544715    0.889170
     86          6           0        6.183408    1.120915   -0.000003
     87          1           0        6.557371    0.586172    0.879273
     88          1           0        6.557362    0.586156   -0.879272
     89          6           0        6.702294    2.563328   -0.000020
     90          1           0        6.310695    3.093592   -0.877451
     91          1           0        6.310705    3.093609    0.877406
     92          6           0        8.232736    2.653851   -0.000029
     93          1           0        8.625377    2.123895   -0.877089
     94          1           0        8.625386    2.123915    0.877039
     95          6           0        8.759645    4.093149   -0.000049
     96          1           0        8.365192    4.622558   -0.876939
     97          1           0        8.365200    4.622579    0.876832
     98          6           0       10.289725    4.186648   -0.000057
     99          1           0       10.684295    3.657225   -0.876921
    100          1           0       10.684303    3.657250    0.876819
    101          6           0       10.816455    5.626238   -0.000080
    102          1           0       10.421473    6.155553    0.876679
    103          1           0       10.421470    6.155526   -0.876855
    104          6           0       12.346445    5.721271   -0.000085
    105          1           0       12.741552    5.192038   -0.876856
    106          1           0       12.741554    5.192075    0.876709
    107          6           0       12.872406    7.161161   -0.000116
    108          1           0       12.477081    7.690322    0.876609
    109          1           0       12.477091    7.690279   -0.876873
    110          6           0       14.402336    7.257155   -0.000110
    111          1           0       14.797766    6.728080   -0.876832
    112          1           0       14.797753    6.728144    0.876656
    113          6           0       14.927764    8.697262   -0.000159
    114          1           0       14.532257    9.226247   -0.876942
    115          1           0       14.532236    9.226315    0.876573
    116          6           0       16.457463    8.794063   -0.000144
    117          1           0       16.854042    8.265516   -0.876874
    118          1           0       16.854019    8.265591    0.876642
    119          6           0       16.983538   10.233960   -0.000199
    120          1           0       16.587969   10.762082    0.875924
    121          1           0       16.587995   10.762005   -0.876379
    122          6           0       18.512439   10.320807   -0.000180
    123          1           0       18.936323    9.831807   -0.882933
    124          1           0       18.854399   11.359440   -0.000222
    125          1           0       18.936297    9.831886    0.882629
    126          6           0       -4.665163   -1.050939    0.000022
    127          1           0       -4.253154   -1.544681   -0.889147
    128          1           0       -4.253156   -1.544696    0.889185
    129          6           0       -6.183373   -1.120893    0.000020
    130          1           0       -6.557330   -0.586148    0.879297
    131          1           0       -6.557328   -0.586132   -0.879248
    132          6           0       -6.702267   -2.563304    0.000006
    133          1           0       -6.310674   -3.093570   -0.877427
    134          1           0       -6.310677   -3.093586    0.877430
    135          6           0       -8.232710   -2.653817    0.000003
    136          1           0       -8.625350   -2.123856   -0.877054
    137          1           0       -8.625352   -2.123881    0.877074
    138          6           0       -8.759627   -4.093112   -0.000018
    139          1           0       -8.365184   -4.622520   -0.876913
    140          1           0       -8.365181   -4.622548    0.876858
    141          6           0      -10.289708   -4.186600   -0.000017
    142          1           0      -10.684280   -3.657168   -0.876875
    143          1           0      -10.684276   -3.657206    0.876866
    144          6           0      -10.816448   -5.626186   -0.000047
    145          1           0      -10.421475   -6.155470   -0.876829
    146          1           0      -10.421464   -6.155512    0.876705
    147          6           0      -12.346439   -5.721208   -0.000041
    148          1           0      -12.741549   -5.191963   -0.876804
    149          1           0      -12.741537   -5.192018    0.876761
    150          6           0      -12.872411   -7.161094   -0.000083
    151          1           0      -12.477109   -7.690205   -0.876850
    152          1           0      -12.477081   -7.690267    0.876633
    153          6           0      -14.402342   -7.257078   -0.000062
    154          1           0      -14.797778   -6.727985   -0.876770
    155          1           0      -14.797746   -6.728078    0.876718
    156          6           0      -14.927779   -8.697182   -0.000129
    157          1           0      -14.532287   -9.226152   -0.876927
    158          1           0      -14.532242   -9.226252    0.876588
    159          6           0      -16.457478   -8.793973   -0.000095
    160          1           0      -16.854020   -8.265516    0.876707
    161          1           0      -16.854066   -8.265406   -0.876810
    162          6           0      -16.983563  -10.233866   -0.000172
    163          1           0      -16.587984  -10.762009    0.875933
    164          1           0      -16.588036  -10.761896   -0.876369
    165          6           0      -18.512464  -10.320704   -0.000133
    166          1           0      -18.854432  -11.359334   -0.000192
    167          1           0      -18.936305   -9.831798    0.882693
    168          1           0      -18.936357   -9.831682   -0.882870
 ---------------------------------------------------------------------

 The electronic state is 1-A.
 Alpha  occ. eigenvalues --  -88.86816 -88.86816 -88.86629 -88.86629 -88.86613
 Alpha  occ. eigenvalues --  -88.86613 -88.86543 -88.86543 -19.15452 -19.15452
 Alpha  occ. eigenvalues --  -19.15426 -19.15426 -19.15347 -19.15347 -19.15148
 Alpha  occ. eigenvalues --  -19.15148 -10.23099 -10.23099 -10.23058 -10.23058
 Alpha  occ. eigenvalues --  -10.23029 -10.23029 -10.22970 -10.22970 -10.22920
 Alpha  occ. eigenvalues --  -10.22920 -10.22886 -10.22886 -10.22831 -10.22831
 Alpha  occ. eigenvalues --  -10.22738 -10.22738 -10.20656 -10.20656 -10.20617
 Alpha  occ. eigenvalues --  -10.20617 -10.20590 -10.20552 -10.20276 -10.20276
 Alpha  occ. eigenvalues --  -10.20206 -10.20206 -10.20181 -10.20181 -10.20117
 Alpha  occ. eigenvalues --  -10.20117 -10.19257 -10.19257 -10.17407 -10.17407
 Alpha  occ. eigenvalues --  -10.17294 -10.17294 -10.17237 -10.17237 -10.17221
 Alpha  occ. eigenvalues --  -10.17221 -10.17177 -10.17177 -10.17112 -10.17112
 Alpha  occ. eigenvalues --  -10.16846 -10.16846 -10.16599 -10.16599 -10.16459
 Alpha  occ. eigenvalues --  -10.16459 -10.16350 -10.16350 -10.16325 -10.16325
 Alpha  occ. eigenvalues --  -10.16276 -10.16276 -10.16222 -10.16222 -10.16187
 Alpha  occ. eigenvalues --  -10.16187 -10.16158 -10.16158 -10.16124 -10.16124
 Alpha  occ. eigenvalues --  -10.15635 -10.15635  -7.95392  -7.95392  -7.95218
 Alpha  occ. eigenvalues --   -7.95218  -7.95202  -7.95202  -7.95132  -7.95132
 Alpha  occ. eigenvalues --   -5.91704  -5.91704  -5.91547  -5.91547  -5.91533
 Alpha  occ. eigenvalues --   -5.91533  -5.91463  -5.91463  -5.91316  -5.91316
 Alpha  occ. eigenvalues --   -5.91162  -5.91162  -5.91147  -5.91147  -5.91078
 Alpha  occ. eigenvalues --   -5.91078  -5.90963  -5.90963  -5.90748  -5.90748
 Alpha  occ. eigenvalues --   -5.90728  -5.90728  -5.90657  -5.90657  -1.07213
 Alpha  occ. eigenvalues --   -1.07213  -1.07171  -1.07171  -1.07087  -1.07087
 Alpha  occ. eigenvalues --   -1.06911  -1.06909  -0.89489  -0.89272  -0.88860
 Alpha  occ. eigenvalues --   -0.88171  -0.87790  -0.87031  -0.86342  -0.85818
 Alpha  occ. eigenvalues --   -0.82169  -0.82111  -0.81302  -0.81240  -0.80085
 Alpha  occ. eigenvalues --   -0.79890  -0.79280  -0.78552  -0.78117  -0.78021
 Alpha  occ. eigenvalues --   -0.77022  -0.76109  -0.75820  -0.75773  -0.75326
 Alpha  occ. eigenvalues --   -0.75157  -0.74735  -0.74623  -0.74043  -0.73914
 Alpha  occ. eigenvalues --   -0.73477  -0.73292  -0.72303  -0.72142  -0.71843
 Alpha  occ. eigenvalues --   -0.71837  -0.71435  -0.70317  -0.69743  -0.69742
 Alpha  occ. eigenvalues --   -0.69072  -0.69042  -0.68913  -0.68154  -0.66347
 Alpha  occ. eigenvalues --   -0.66282  -0.65949  -0.64783  -0.62991  -0.62551
 Alpha  occ. eigenvalues --   -0.61911  -0.60990  -0.60536  -0.59797  -0.59459
 Alpha  occ. eigenvalues --   -0.59140  -0.58713  -0.58696  -0.58597  -0.58147
 Alpha  occ. eigenvalues --   -0.58106  -0.57758  -0.57575  -0.57571  -0.57385
 Alpha  occ. eigenvalues --   -0.57352  -0.56926  -0.56246  -0.55390  -0.55165
 Alpha  occ. eigenvalues --   -0.54992  -0.54922  -0.54842  -0.53591  -0.53589
 Alpha  occ. eigenvalues --   -0.53383  -0.53369  -0.53083  -0.52355  -0.51503
 Alpha  occ. eigenvalues --   -0.50185  -0.50179  -0.49674  -0.49184  -0.48938
 Alpha  occ. eigenvalues --   -0.48936  -0.48266  -0.47935  -0.47930  -0.47615
 Alpha  occ. eigenvalues --   -0.47615  -0.47516  -0.47510  -0.47509  -0.47345
 Alpha  occ. eigenvalues --   -0.47345  -0.47028  -0.47020  -0.46690  -0.46432
 Alpha  occ. eigenvalues --   -0.46423  -0.46300  -0.45731  -0.44963  -0.44741
 Alpha  occ. eigenvalues --   -0.44571  -0.44545  -0.44320  -0.44287  -0.44108
 Alpha  occ. eigenvalues --   -0.43787  -0.43653  -0.43617  -0.43574  -0.43379
 Alpha  occ. eigenvalues --   -0.42952  -0.42913  -0.42580  -0.42496  -0.42457
 Alpha  occ. eigenvalues --   -0.42326  -0.42317  -0.41576  -0.41355  -0.41219
 Alpha  occ. eigenvalues --   -0.40978  -0.40881  -0.40874  -0.40766  -0.40733
 Alpha  occ. eigenvalues --   -0.40637  -0.40618  -0.40435  -0.40149  -0.40033
 Alpha  occ. eigenvalues --   -0.39666  -0.39639  -0.39155  -0.38989  -0.38521
 Alpha  occ. eigenvalues --   -0.38504  -0.38396  -0.38394  -0.37657  -0.37643
 Alpha  occ. eigenvalues --   -0.37437  -0.37391  -0.37120  -0.37006  -0.36647
 Alpha  occ. eigenvalues --   -0.36646  -0.36626  -0.36357  -0.36346  -0.35953
 Alpha  occ. eigenvalues --   -0.35636  -0.35606  -0.35418  -0.35363  -0.35247
 Alpha  occ. eigenvalues --   -0.35237  -0.35050  -0.34935  -0.34643  -0.34591
 Alpha  occ. eigenvalues --   -0.34272  -0.34271  -0.34182  -0.33922  -0.33672
 Alpha  occ. eigenvalues --   -0.33668  -0.33362  -0.33359  -0.33136  -0.33127
 Alpha  occ. eigenvalues --   -0.33025  -0.32961  -0.32892  -0.32726  -0.32723
 Alpha  occ. eigenvalues --   -0.32708  -0.32653  -0.32642  -0.32606  -0.32587
 Alpha  occ. eigenvalues --   -0.32517  -0.32515  -0.32487  -0.32404  -0.32346
 Alpha  occ. eigenvalues --   -0.32346  -0.32235  -0.32235  -0.31685  -0.31643
 Alpha  occ. eigenvalues --   -0.31601  -0.31568  -0.31458  -0.31333  -0.29766
 Alpha  occ. eigenvalues --   -0.29760  -0.29179  -0.28220  -0.26764  -0.25421
 Alpha  occ. eigenvalues --   -0.24041  -0.23916  -0.23830  -0.23753  -0.23145
 Alpha  occ. eigenvalues --   -0.23056  -0.22834  -0.22828  -0.20365  -0.18775
 Alpha  occ. eigenvalues --   -0.16755  -0.14935
 Alpha virt. eigenvalues --   -0.07309  -0.05590  -0.03620  -0.01280  -0.00516
 Alpha virt. eigenvalues --    0.01817   0.02018   0.02062   0.02283   0.02583
 Alpha virt. eigenvalues --    0.02730   0.02893   0.02981   0.03141   0.03432

 Mulliken charges:
               1
     1  C   -0.238181
     2  C    0.233855
     3  C   -0.069824
     4  C   -0.232178
     5  S    0.340491
     6  O   -0.381542
     7  H    0.114971
     8  C   -0.234088
     9  C    0.221106
    10  C   -0.068508
    11  C   -0.237933
    12  S    0.353822
    13  O   -0.373028
    14  H    0.114382
    15  C   -0.132515
    16  H    0.129262
    17  H    0.114021
    18  H    0.114021
    19  C   -0.211107
    20  C    0.219686
    21  C   -0.066434
    22  C   -0.237830
    23  S    0.339822
    24  O   -0.373258
    25  H    0.115051
    26  C   -0.235799
    27  C    0.220560
    28  C   -0.093073
    29  C   -0.299213
    30  S    0.308664
    31  O   -0.369223
    32  H    0.105137
    33  C   -0.132728
    34  H    0.113544
    35  H    0.113544
    36  H    0.130721
    37  C   -0.129950
    38  H    0.128909
    39  H    0.111918
    40  H    0.111918
    41  H    0.126585
    42  C   -0.235798
    43  C    0.220560
    44  C   -0.093073
    45  C   -0.299213
    46  S    0.308664
    47  O   -0.369223
    48  H    0.105137
    49  C   -0.211108
    50  C    0.219687
    51  C   -0.066435
    52  C   -0.237830
    53  S    0.339823
    54  O   -0.373258
    55  H    0.115051
    56  C   -0.129950
    57  H    0.111918
    58  H    0.111918
    59  H    0.128909
    60  C   -0.132728
    61  H    0.130722
    62  H    0.113545
    63  H    0.113545
    64  H    0.126585
    65  C   -0.234093
    66  C    0.221107
    67  C   -0.068509
    68  C   -0.237934
    69  S    0.353824
    70  O   -0.373027
    71  H    0.114382
    72  C   -0.238177
    73  C    0.233854
    74  C   -0.069824
    75  C   -0.232177
    76  S    0.340489
    77  O   -0.381545
    78  H    0.114971
    79  C   -0.132516
    80  H    0.114020
    81  H    0.114020
    82  H    0.129262
    83  C   -0.016713
    84  H    0.110709
    85  H    0.110709
    86  C   -0.217436
    87  H    0.121152
    88  H    0.121152
    89  C   -0.217372
    90  H    0.104833
    91  H    0.104833
    92  C   -0.201686
    93  H    0.103743
    94  H    0.103743
    95  C   -0.202187
    96  H    0.102190
    97  H    0.102190
    98  C   -0.201680
    99  H    0.101456
   100  H    0.101456
   101  C   -0.201509
   102  H    0.101240
   103  H    0.101240
   104  C   -0.201248
   105  H    0.100970
   106  H    0.100970
   107  C   -0.201413
   108  H    0.100860
   109  H    0.100860
   110  C   -0.201102
   111  H    0.100824
   112  H    0.100824
   113  C   -0.200271
   114  H    0.100308
   115  H    0.100308
   116  C   -0.202663
   117  H    0.100165
   118  H    0.100165
   119  C   -0.222154
   120  H    0.103126
   121  H    0.103126
   122  C   -0.289420
   123  H    0.101268
   124  H    0.105587
   125  H    0.101268
   126  C   -0.016712
   127  H    0.110710
   128  H    0.110710
   129  C   -0.217436
   130  H    0.121152
   131  H    0.121152
   132  C   -0.217371
   133  H    0.104833
   134  H    0.104833
   135  C   -0.201686
   136  H    0.103743
   137  H    0.103743
   138  C   -0.202187
   139  H    0.102190
   140  H    0.102190
   141  C   -0.201680
   142  H    0.101456
   143  H    0.101456
   144  C   -0.201509
   145  H    0.101240
   146  H    0.101241
   147  C   -0.201248
   148  H    0.100970
   149  H    0.100970
   150  C   -0.201413
   151  H    0.100860
   152  H    0.100860
   153  C   -0.201102
   154  H    0.100824
   155  H    0.100824
   156  C   -0.200271
   157  H    0.100308
   158  H    0.100308
   159  C   -0.202663
   160  H    0.100165
   161  H    0.100165
   162  C   -0.222154
   163  H    0.103126
   164  H    0.103126
   165  C   -0.289420
   166  H    0.105587
   167  H    0.101268
   168  H    0.101268
 Sum of Mulliken charges =  -0.00000

 Dipole moment (field-independent basis, Debye):
    X=             -0.0001    Y=             -0.0001    Z=             -0.0000  Tot=              0.0001
 Quadrupole moment (field-independent basis, Debye-Ang):
   XX=           -516.3202   YY=           -448.5638   ZZ=           -570.1308
   XY=             14.3893   XZ=              0.0000   YZ=              0.0001

 ESP charges:
               1
     1  C   -0.006594
     2  C    0.235845
     3  C   -0.335346
     4  C    0.105617
     5  S   -0.184694
     6  O   -0.230511
     7  H    0.211833
     8  C    0.004762
     9  C    0.218920
    10  C   -0.346623
    11  C    0.136093
    12  S   -0.191604
    13  O   -0.182633
    14  H    0.227019
    15  C   -0.008541
    16  H    0.083459
    17  H    0.040378
    18  H    0.040378
    19  C    0.016194
    20  C    0.250701
    21  C   -0.309197
    22  C    0.059656
    23  S   -0.176707
    24  O   -0.256158
    25  H    0.209266
    26  C   -0.113302
    27  C    0.317367
    28  C   -0.301427
    29  C   -0.134129
    30  S   -0.032188
    31  O   -0.200421
    32  H    0.152531
    33  C    0.044211
    34  H    0.031532
    35  H    0.031535
    36  H    0.074620
    37  C   -0.041500
    38  H    0.088435
    39  H    0.054798
    40  H    0.054795
    41  H    0.160189
    42  C   -0.113298
    43  C    0.317363
    44  C   -0.301420
    45  C   -0.134140
    46  S   -0.032184
    47  O   -0.200418
    48  H    0.152529
    49  C    0.016188
    50  C    0.250703
    51  C   -0.309191
    52  C    0.059644
    53  S   -0.176703
    54  O   -0.256155
    55  H    0.209267
    56  C   -0.041507
    57  H    0.054799
    58  H    0.054798
    59  H    0.088436
    60  C    0.044187
    61  H    0.074625
    62  H    0.031542
    63  H    0.031540
    64  H    0.160192
    65  C    0.004798
    66  C    0.218908
    67  C   -0.346620
    68  C    0.136108
    69  S   -0.191629
    70  O   -0.182649
    71  H    0.227016
    72  C   -0.006626
    73  C    0.235847
    74  C   -0.335337
    75  C    0.105587
    76  S   -0.184666
    77  O   -0.230495
    78  H    0.211836
    79  C   -0.008531
    80  H    0.040379
    81  H    0.040378
    82  H    0.083455
    83  C    0.126582
    84  H    0.005260
    85  H    0.005261
    86  C    0.089559
    87  H   -0.000795
    88  H   -0.000792
    89  C   -0.050536
    90  H    0.005343
    91  H    0.005343
    92  C    0.048190
    93  H   -0.018613
    94  H   -0.018614
    95  C    0.056032
    96  H   -0.023164
    97  H   -0.023166
    98  C    0.052759
    99  H   -0.024546
   100  H   -0.024544
   101  C    0.040916
   102  H   -0.023201
   103  H   -0.023201
   104  C    0.049820
   105  H   -0.025328
   106  H   -0.025341
   107  C    0.050386
   108  H   -0.024732
   109  H   -0.024735
   110  C    0.079728
   111  H   -0.031089
   112  H   -0.031079
   113  C    0.012283
   114  H   -0.019810
   115  H   -0.019825
   116  C    0.021597
   117  H   -0.017151
   118  H   -0.017171
   119  C    0.207001
   120  H   -0.051815
   121  H   -0.051827
   122  C   -0.162677
   123  H    0.024769
   124  H    0.029582
   125  H    0.024784
   126  C    0.126566
   127  H    0.005263
   128  H    0.005266
   129  C    0.089561
   130  H   -0.000793
   131  H   -0.000791
   132  C   -0.050542
   133  H    0.005345
   134  H    0.005345
   135  C    0.048182
   136  H   -0.018612
   137  H   -0.018613
   138  C    0.056058
   139  H   -0.023170
   140  H   -0.023171
   141  C    0.052735
   142  H   -0.024541
   143  H   -0.024540
   144  C    0.040919
   145  H   -0.023199
   146  H   -0.023201
   147  C    0.049827
   148  H   -0.025327
   149  H   -0.025333
   150  C    0.050358
   151  H   -0.024730
   152  H   -0.024728
   153  C    0.079694
   154  H   -0.031084
   155  H   -0.031074
   156  C    0.012435
   157  H   -0.019841
   158  H   -0.019856
   159  C    0.021436
   160  H   -0.017131
   161  H   -0.017112
   162  C    0.207011
   163  H   -0.051798
   164  H   -0.051810
   165  C   -0.162799
   166  H    0.029623
   167  H    0.024814
   168  H    0.024797
 Sum of ESP charges =  -0.00000

 Normal termination of Gaussian 16 at Wed Mar  4 09:56:08 2020.
