 Gaussian 16, Revision A.03,
 Gaussian 16:  ES64L-G16RevA.03 25-Dec-2016

 -----------------------------------
 #p opt b3lyp/6-311g(d,p) pop=chelpg
 -----------------------------------

 ----------------------
 O3G_4m_0sc_opt_pop.gjf
 ----------------------
 Symbolic Z-matrix:
 Charge =  0 Multiplicity = 1

 SCF Done:  E(RB3LYP) =  -6040.32628576     A.U. after   15 cycles
 SCF Done:  E(RB3LYP) =  -6040.36748408     A.U. after   12 cycles
 SCF Done:  E(RB3LYP) =  -6040.42456122     A.U. after   14 cycles
 SCF Done:  E(RB3LYP) =  -6040.43196280     A.U. after   11 cycles
 SCF Done:  E(RB3LYP) =  -6040.43281517     A.U. after   10 cycles
 SCF Done:  E(RB3LYP) =  -6040.43290733     A.U. after   10 cycles
 SCF Done:  E(RB3LYP) =  -6040.43293159     A.U. after    9 cycles
 SCF Done:  E(RB3LYP) =  -6040.43293508     A.U. after    9 cycles
 SCF Done:  E(RB3LYP) =  -6040.43293543     A.U. after    6 cycles
 SCF Done:  E(RB3LYP) =  -6040.43293544     A.U. after    6 cycles
 SCF Done:  E(RB3LYP) =  -6040.43293548     A.U. after    6 cycles
 Optimization completed.
    -- Stationary point found.

                         Standard orientation:
 ---------------------------------------------------------------------
 Center     Atomic      Atomic             Coordinates (Angstroms)
 Number     Number       Type             X           Y           Z
 ---------------------------------------------------------------------
      1          6           0        3.162123   -0.676619   -0.000112
      2          6           0        2.942967    0.698765   -0.000195
      3          6           0        1.581839    1.074145   -0.000181
      4          6           0        0.718412   -0.003873   -0.000088
      5         16           0        1.610192   -1.511354    0.000022
      6          8           0        4.011308    1.541531   -0.000319
      7          1           0        1.237907    2.098116   -0.000258
      8          6           0        4.413550   -1.372562   -0.000120
      9          6           0        4.630131   -2.747749   -0.000034
     10          6           0        5.989612   -3.128369   -0.000034
     11          6           0        6.855697   -2.053074   -0.000118
     12         16           0        5.967898   -0.543316   -0.000257
     13          8           0        3.557662   -3.586688    0.000058
     14          1           0        6.330328   -4.153591    0.000048
     15          6           0        3.806440   -4.986237    0.000110
     16          1           0        2.828290   -5.464202    0.000164
     17          1           0        4.359325   -5.291602   -0.894805
     18          1           0        4.359384   -5.291525    0.895015
     19          6           0       10.734027   -2.745041   -0.000096
     20          6           0       10.520582   -1.372471   -0.000149
     21          6           0        9.159896   -0.989649   -0.000161
     22          6           0        8.293819   -2.064289   -0.000117
     23         16           0        9.181566   -3.573965   -0.000055
     24          8           0       11.594174   -0.534604   -0.000186
     25          1           0        8.820201    0.035883   -0.000200
     26          6           0       11.989657   -3.446093   -0.000074
     27          6           0       12.201673   -4.818386   -0.000024
     28          6           0       13.572737   -5.197791   -0.000015
     29          6           0       14.405481   -4.115497   -0.000060
     30         16           0       13.543317   -2.619060   -0.000108
     31          8           0       11.129834   -5.660645    0.000011
     32          1           0       13.924792   -6.219059    0.000021
     33          6           0       11.347706    0.865457   -0.000247
     34          1           0       10.795361    1.171937    0.894617
     35          1           0       10.795353    1.171858   -0.895133
     36          1           0       12.326724    1.341592   -0.000272
     37          6           0       11.382407   -7.058746    0.000059
     38          1           0       10.405826   -7.540062    0.000079
     39          1           0       11.935931   -7.363789   -0.894807
     40          1           0       11.935936   -7.363726    0.894944
     41          1           0       15.484291   -4.110826   -0.000067
     42          6           0      -11.989621    3.445974   -0.000095
     43          6           0      -12.201680    4.818261   -0.000061
     44          6           0      -13.572755    5.197623   -0.000075
     45          6           0      -14.405466    4.115302   -0.000120
     46         16           0      -13.543254    2.618893   -0.000149
     47          8           0      -11.129869    5.660555   -0.000019
     48          1           0      -13.924843    6.218879   -0.000053
     49          6           0      -10.733974    2.744952   -0.000091
     50          6           0      -10.520503    1.372386   -0.000124
     51          6           0       -9.159811    0.989589   -0.000115
     52          6           0       -8.293753    2.064244   -0.000075
     53         16           0       -9.181526    3.573905   -0.000036
     54          8           0      -11.594083    0.534503   -0.000165
     55          1           0       -8.820099   -0.035938   -0.000143
     56          6           0      -11.382489    7.058648    0.000016
     57          1           0      -11.936043    7.363616    0.894890
     58          1           0      -11.936011    7.363666   -0.894861
     59          1           0      -10.405925    7.539998    0.000047
     60          6           0      -11.347593   -0.865554   -0.000202
     61          1           0      -12.326604   -1.341704   -0.000231
     62          1           0      -10.795225   -1.171960   -0.895077
     63          1           0      -10.795254   -1.172012    0.894673
     64          1           0      -15.484275    4.110597   -0.000138
     65          6           0       -4.413477    1.372583   -0.000046
     66          6           0       -4.630076    2.747767   -0.000042
     67          6           0       -5.989562    3.128363   -0.000049
     68          6           0       -6.855631    2.053054   -0.000059
     69         16           0       -5.967811    0.543311   -0.000046
     70          8           0       -3.557618    3.586720   -0.000037
     71          1           0       -6.330296    4.153578   -0.000053
     72          6           0       -3.162043    0.676656   -0.000047
     73          6           0       -2.942893   -0.698725   -0.000044
     74          6           0       -1.581766   -1.074104   -0.000055
     75          6           0       -0.718338    0.003916   -0.000067
     76         16           0       -1.610115    1.511398   -0.000045
     77          8           0       -4.011246   -1.541487   -0.000045
     78          1           0       -1.237837   -2.098075   -0.000067
     79          6           0       -3.806411    4.986265   -0.000040
     80          1           0       -4.359329    5.291588    0.894869
     81          1           0       -4.359324    5.291586   -0.894953
     82          1           0       -2.828263    5.464233   -0.000038
     83          6           0        3.764366    2.951072   -0.000111
     84          1           0        3.180660    3.221126   -0.889223
     85          1           0        3.180764    3.220882    0.889141
     86          6           0        5.106947    3.663324   -0.000104
     87          1           0        5.673507    3.339295    0.879066
     88          1           0        5.673411    3.339483   -0.879405
     89          6           0        4.961194    5.189312    0.000065
     90          1           0        4.381043    5.502330   -0.877343
     91          1           0        4.381142    5.502146    0.877604
     92          6           0        6.307672    5.922368    0.000066
     93          1           0        6.888311    5.609613   -0.877032
     94          1           0        6.888409    5.609434    0.877035
     95          6           0        6.173604    7.449240    0.000229
     96          1           0        5.591844    7.761421   -0.876631
     97          1           0        5.591947    7.761243    0.877221
     98          6           0        7.519857    8.182332    0.000224
     99          1           0        8.101457    7.869896   -0.876686
    100          1           0        8.101559    7.869721    0.877005
    101          6           0        7.387999    9.709621    0.000384
    102          1           0        6.806369   10.022174    0.877273
    103          1           0        6.806263   10.022349   -0.876372
    104          6           0        8.734234   10.442374    0.000376
    105          1           0        9.316548   10.130477   -0.876489
    106          1           0        9.316654   10.130303    0.877109
    107          6           0        8.604194   11.969861    0.000535
    108          1           0        8.023025   12.281902    0.876785
    109          1           0        8.022917   12.282075   -0.875582
    110          6           0        9.954137   12.692823    0.000524
    111          1           0       10.544485   12.428152   -0.882345
    112          1           0        9.826497   13.778794    0.000639
    113          1           0       10.544593   12.427978    0.883268
    114          6           0       -3.764358   -2.951024    0.000024
    115          1           0       -3.180711   -3.221036   -0.889141
    116          1           0       -3.180711   -3.220950    0.889216
    117          6           0       -5.106955   -3.663252    0.000056
    118          1           0       -5.673460   -3.339263    0.879277
    119          1           0       -5.673460   -3.339338   -0.879193
    120          6           0       -4.961247   -5.189245    0.000120
    121          1           0       -4.381152   -5.502225   -0.877338
    122          1           0       -4.381154   -5.502152    0.877606
    123          6           0       -6.307744   -5.922269    0.000149
    124          1           0       -6.888421   -5.609446   -0.876900
    125          1           0       -6.888425   -5.609371    0.877168
    126          6           0       -6.173722   -7.449145    0.000214
    127          1           0       -5.592019   -7.761292   -0.876696
    128          1           0       -5.592028   -7.761218    0.877155
    129          6           0       -7.519998   -8.182193    0.000238
    130          1           0       -8.101634   -7.869687   -0.876624
    131          1           0       -8.101643   -7.869614    0.877068
    132          6           0       -7.388193   -9.709487    0.000302
    133          1           0       -6.806516  -10.022185   -0.876504
    134          1           0       -6.806526  -10.022112    0.877141
    135          6           0       -8.734454  -10.442190    0.000325
    136          1           0       -9.316805  -10.130221   -0.876490
    137          1           0       -9.316814  -10.130149    0.877109
    138          6           0       -8.604472  -11.969682    0.000389
    139          1           0       -8.023255  -12.281868   -0.875779
    140          1           0       -8.023265  -12.281796    0.876588
    141          6           0       -9.954441  -12.692594    0.000411
    142          1           0      -10.544829  -12.427849   -0.882410
    143          1           0       -9.826843  -13.778569    0.000456
    144          1           0      -10.544839  -12.427777    0.883204
 ---------------------------------------------------------------------

 The electronic state is 1-A.
 Alpha  occ. eigenvalues --  -88.86818 -88.86818 -88.86631 -88.86631 -88.86616
 Alpha  occ. eigenvalues --  -88.86616 -88.86546 -88.86546 -19.15456 -19.15456
 Alpha  occ. eigenvalues --  -19.15429 -19.15429 -19.15350 -19.15350 -19.15153
 Alpha  occ. eigenvalues --  -19.15153 -10.23102 -10.23102 -10.23061 -10.23061
 Alpha  occ. eigenvalues --  -10.23032 -10.23032 -10.22972 -10.22972 -10.22923
 Alpha  occ. eigenvalues --  -10.22923 -10.22894 -10.22894 -10.22835 -10.22835
 Alpha  occ. eigenvalues --  -10.22742 -10.22742 -10.20658 -10.20658 -10.20619
 Alpha  occ. eigenvalues --  -10.20619 -10.20594 -10.20555 -10.20278 -10.20278
 Alpha  occ. eigenvalues --  -10.20209 -10.20209 -10.20183 -10.20183 -10.20119
 Alpha  occ. eigenvalues --  -10.20119 -10.19259 -10.19259 -10.17409 -10.17409
 Alpha  occ. eigenvalues --  -10.17303 -10.17303 -10.17243 -10.17243 -10.17224
 Alpha  occ. eigenvalues --  -10.17224 -10.17180 -10.17180 -10.17116 -10.17116
 Alpha  occ. eigenvalues --  -10.16858 -10.16858 -10.16616 -10.16616 -10.16483
 Alpha  occ. eigenvalues --  -10.16483 -10.16457 -10.16457 -10.16377 -10.16377
 Alpha  occ. eigenvalues --  -10.16295 -10.16295 -10.15740 -10.15740  -7.95395
 Alpha  occ. eigenvalues --   -7.95395  -7.95221  -7.95221  -7.95205  -7.95205
 Alpha  occ. eigenvalues --   -7.95136  -7.95135  -5.91706  -5.91706  -5.91549
 Alpha  occ. eigenvalues --   -5.91549  -5.91535  -5.91535  -5.91466  -5.91466
 Alpha  occ. eigenvalues --   -5.91318  -5.91318  -5.91164  -5.91164  -5.91150
 Alpha  occ. eigenvalues --   -5.91150  -5.91081  -5.91081  -5.90966  -5.90965
 Alpha  occ. eigenvalues --   -5.90750  -5.90750  -5.90731  -5.90731  -5.90660
 Alpha  occ. eigenvalues --   -5.90660  -1.07217  -1.07217  -1.07174  -1.07174
 Alpha  occ. eigenvalues --   -1.07090  -1.07090  -1.06916  -1.06915  -0.89493
 Alpha  occ. eigenvalues --   -0.89275  -0.88863  -0.88173  -0.87793  -0.87034
 Alpha  occ. eigenvalues --   -0.86345  -0.85822  -0.82133  -0.82062  -0.80685
 Alpha  occ. eigenvalues --   -0.80530  -0.79386  -0.78554  -0.78190  -0.78086
 Alpha  occ. eigenvalues --   -0.76948  -0.76110  -0.75612  -0.75170  -0.75111
 Alpha  occ. eigenvalues --   -0.75070  -0.74500  -0.74443  -0.73975  -0.73917
 Alpha  occ. eigenvalues --   -0.72889  -0.72617  -0.71891  -0.71842  -0.71765
 Alpha  occ. eigenvalues --   -0.70987  -0.69795  -0.69751  -0.69679  -0.69269
 Alpha  occ. eigenvalues --   -0.68925  -0.68317  -0.66349  -0.66255  -0.65802
 Alpha  occ. eigenvalues --   -0.64540  -0.62344  -0.61841  -0.61671  -0.60570
 Alpha  occ. eigenvalues --   -0.59895  -0.59267  -0.59090  -0.59020  -0.58626
 Alpha  occ. eigenvalues --   -0.58100  -0.58058  -0.57891  -0.57759  -0.57619
 Alpha  occ. eigenvalues --   -0.56933  -0.56252  -0.55395  -0.55168  -0.54996
 Alpha  occ. eigenvalues --   -0.54925  -0.54848  -0.53593  -0.53591  -0.53385
 Alpha  occ. eigenvalues --   -0.53373  -0.53085  -0.52358  -0.51509  -0.50190
 Alpha  occ. eigenvalues --   -0.50184  -0.49678  -0.49187  -0.48628  -0.48624
 Alpha  occ. eigenvalues --   -0.48269  -0.47618  -0.47618  -0.47519  -0.47518
 Alpha  occ. eigenvalues --   -0.47516  -0.47348  -0.47348  -0.47031  -0.47024
 Alpha  occ. eigenvalues --   -0.46760  -0.46750  -0.46693  -0.46304  -0.45733
 Alpha  occ. eigenvalues --   -0.44968  -0.44744  -0.44328  -0.44291  -0.44233
 Alpha  occ. eigenvalues --   -0.44188  -0.44164  -0.43938  -0.43657  -0.43393
 Alpha  occ. eigenvalues --   -0.43388  -0.43299  -0.42810  -0.42777  -0.42349
 Alpha  occ. eigenvalues --   -0.41827  -0.41607  -0.41494  -0.41427  -0.40921
 Alpha  occ. eigenvalues --   -0.40907  -0.40792  -0.40792  -0.40688  -0.40645
 Alpha  occ. eigenvalues --   -0.40508  -0.40197  -0.40190  -0.40077  -0.39932
 Alpha  occ. eigenvalues --   -0.39138  -0.39092  -0.38585  -0.38485  -0.37862
 Alpha  occ. eigenvalues --   -0.37714  -0.37714  -0.37660  -0.37469  -0.37438
 Alpha  occ. eigenvalues --   -0.36651  -0.36590  -0.36577  -0.36150  -0.36079
 Alpha  occ. eigenvalues --   -0.35738  -0.35701  -0.35447  -0.35384  -0.35339
 Alpha  occ. eigenvalues --   -0.35251  -0.35148  -0.35101  -0.34861  -0.34523
 Alpha  occ. eigenvalues --   -0.34389  -0.34270  -0.34234  -0.33693  -0.33678
 Alpha  occ. eigenvalues --   -0.33672  -0.33469  -0.33267  -0.33134  -0.32842
 Alpha  occ. eigenvalues --   -0.32835  -0.32782  -0.32772  -0.32757  -0.32725
 Alpha  occ. eigenvalues --   -0.32708  -0.32702  -0.32497  -0.32475  -0.32447
 Alpha  occ. eigenvalues --   -0.32446  -0.31689  -0.31647  -0.31618  -0.31598
 Alpha  occ. eigenvalues --   -0.31538  -0.31339  -0.30627  -0.30592  -0.29182
 Alpha  occ. eigenvalues --   -0.28222  -0.26766  -0.25424  -0.24044  -0.23920
 Alpha  occ. eigenvalues --   -0.23833  -0.23755  -0.23147  -0.23058  -0.22836
 Alpha  occ. eigenvalues --   -0.22831  -0.20367  -0.18777  -0.16757  -0.14937
 Alpha virt. eigenvalues --   -0.07312  -0.05592  -0.03623  -0.01282  -0.00519
 Alpha virt. eigenvalues --    0.01814   0.02016   0.02060   0.02281   0.02582
 Alpha virt. eigenvalues --    0.02729   0.02890   0.02978   0.03139   0.03430

 Mulliken charges:
               1
     1  C   -0.238215
     2  C    0.233948
     3  C   -0.069786
     4  C   -0.232192
     5  S    0.340491
     6  O   -0.381662
     7  H    0.114914
     8  C   -0.234205
     9  C    0.221170
    10  C   -0.068503
    11  C   -0.238025
    12  S    0.353984
    13  O   -0.373053
    14  H    0.114363
    15  C   -0.132478
    16  H    0.129253
    17  H    0.114016
    18  H    0.114015
    19  C   -0.211150
    20  C    0.219701
    21  C   -0.066429
    22  C   -0.237820
    23  S    0.339862
    24  O   -0.373269
    25  H    0.115027
    26  C   -0.235801
    27  C    0.220571
    28  C   -0.093035
    29  C   -0.299217
    30  S    0.308663
    31  O   -0.369254
    32  H    0.105131
    33  C   -0.132690
    34  H    0.113527
    35  H    0.113527
    36  H    0.130722
    37  C   -0.129913
    38  H    0.128907
    39  H    0.111917
    40  H    0.111917
    41  H    0.126592
    42  C   -0.235805
    43  C    0.220572
    44  C   -0.093036
    45  C   -0.299218
    46  S    0.308665
    47  O   -0.369253
    48  H    0.105131
    49  C   -0.211146
    50  C    0.219701
    51  C   -0.066428
    52  C   -0.237819
    53  S    0.339859
    54  O   -0.373270
    55  H    0.115026
    56  C   -0.129913
    57  H    0.111917
    58  H    0.111917
    59  H    0.128907
    60  C   -0.132689
    61  H    0.130722
    62  H    0.113527
    63  H    0.113527
    64  H    0.126592
    65  C   -0.234212
    66  C    0.221172
    67  C   -0.068503
    68  C   -0.238027
    69  S    0.353993
    70  O   -0.373053
    71  H    0.114362
    72  C   -0.238210
    73  C    0.233949
    74  C   -0.069781
    75  C   -0.232194
    76  S    0.340491
    77  O   -0.381667
    78  H    0.114912
    79  C   -0.132478
    80  H    0.114015
    81  H    0.114015
    82  H    0.129252
    83  C   -0.016440
    84  H    0.110695
    85  H    0.110700
    86  C   -0.217848
    87  H    0.121196
    88  H    0.121195
    89  C   -0.216995
    90  H    0.104851
    91  H    0.104851
    92  C   -0.202089
    93  H    0.103768
    94  H    0.103768
    95  C   -0.202013
    96  H    0.102230
    97  H    0.102231
    98  C   -0.201974
    99  H    0.101519
   100  H    0.101519
   101  C   -0.200398
   102  H    0.100894
   103  H    0.100894
   104  C   -0.203027
   105  H    0.100456
   106  H    0.100456
   107  C   -0.222283
   108  H    0.103405
   109  H    0.103405
   110  C   -0.289414
   111  H    0.101462
   112  H    0.106006
   113  H    0.101462
   114  C   -0.016431
   115  H    0.110693
   116  H    0.110694
   117  C   -0.217853
   118  H    0.121195
   119  H    0.121194
   120  C   -0.216993
   121  H    0.104851
   122  H    0.104851
   123  C   -0.202090
   124  H    0.103768
   125  H    0.103768
   126  C   -0.202012
   127  H    0.102230
   128  H    0.102231
   129  C   -0.201975
   130  H    0.101519
   131  H    0.101519
   132  C   -0.200398
   133  H    0.100894
   134  H    0.100894
   135  C   -0.203028
   136  H    0.100456
   137  H    0.100456
   138  C   -0.222283
   139  H    0.103405
   140  H    0.103405
   141  C   -0.289414
   142  H    0.101462
   143  H    0.106006
   144  H    0.101462
 Sum of Mulliken charges =  -0.00000

 Dipole moment (field-independent basis, Debye):
    X=             -0.0000    Y=             -0.0000    Z=              0.0004  Tot=              0.0004
 Quadrupole moment (field-independent basis, Debye-Ang):
   XX=           -459.7690   YY=           -395.3595   ZZ=           -517.1922
   XY=            -17.1371   XZ=              0.0015   YZ=             -0.0015

 ESP charges:
               1
     1  C    0.009408
     2  C    0.232391
     3  C   -0.354513
     4  C    0.117059
     5  S   -0.203206
     6  O   -0.207547
     7  H    0.227617
     8  C   -0.007135
     9  C    0.233213
    10  C   -0.355052
    11  C    0.123987
    12  S   -0.194125
    13  O   -0.181762
    14  H    0.234957
    15  C    0.005546
    16  H    0.080799
    17  H    0.033908
    18  H    0.033914
    19  C    0.020994
    20  C    0.251513
    21  C   -0.307998
    22  C    0.074731
    23  S   -0.188600
    24  O   -0.271471
    25  H    0.210252
    26  C   -0.114459
    27  C    0.308147
    28  C   -0.265900
    29  C   -0.184634
    30  S   -0.016018
    31  O   -0.194336
    32  H    0.146003
    33  C    0.086568
    34  H    0.020369
    35  H    0.020384
    36  H    0.063198
    37  C   -0.046714
    38  H    0.091070
    39  H    0.053858
    40  H    0.053869
    41  H    0.177431
    42  C   -0.114559
    43  C    0.308205
    44  C   -0.265932
    45  C   -0.184650
    46  S   -0.015992
    47  O   -0.194295
    48  H    0.146010
    49  C    0.021065
    50  C    0.251521
    51  C   -0.308056
    52  C    0.074872
    53  S   -0.188679
    54  O   -0.271497
    55  H    0.210256
    56  C   -0.046778
    57  H    0.053879
    58  H    0.053874
    59  H    0.091081
    60  C    0.086559
    61  H    0.063206
    62  H    0.020391
    63  H    0.020378
    64  H    0.177445
    65  C   -0.007116
    66  C    0.233164
    67  C   -0.354989
    68  C    0.123851
    69  S   -0.194078
    70  O   -0.181720
    71  H    0.234960
    72  C    0.009398
    73  C    0.232412
    74  C   -0.354569
    75  C    0.117185
    76  S   -0.203249
    77  O   -0.207567
    78  H    0.227623
    79  C    0.005524
    80  H    0.033916
    81  H    0.033910
    82  H    0.080803
    83  C    0.074144
    84  H    0.011714
    85  H    0.011712
    86  C    0.127941
    87  H   -0.009923
    88  H   -0.009918
    89  C   -0.026094
    90  H    0.000234
    91  H    0.000255
    92  C    0.007287
    93  H   -0.012817
    94  H   -0.012819
    95  C    0.086750
    96  H   -0.028681
    97  H   -0.028724
    98  C    0.056633
    99  H   -0.024381
   100  H   -0.024348
   101  C    0.012610
   102  H   -0.019246
   103  H   -0.019358
   104  C    0.030582
   105  H   -0.019476
   106  H   -0.019540
   107  C    0.197215
   108  H   -0.050925
   109  H   -0.050842
   110  C   -0.141743
   111  H    0.020012
   112  H    0.023966
   113  H    0.020039
   114  C    0.074162
   115  H    0.011699
   116  H    0.011716
   117  C    0.127972
   118  H   -0.009931
   119  H   -0.009935
   120  C   -0.026151
   121  H    0.000259
   122  H    0.000252
   123  C    0.007360
   124  H   -0.012832
   125  H   -0.012827
   126  C    0.086762
   127  H   -0.028706
   128  H   -0.028702
   129  C    0.056373
   130  H   -0.024311
   131  H   -0.024307
   132  C    0.012908
   133  H   -0.019365
   134  H   -0.019357
   135  C    0.030762
   136  H   -0.019564
   137  H   -0.019566
   138  C    0.196962
   139  H   -0.050835
   140  H   -0.050814
   141  C   -0.142134
   142  H    0.020148
   143  H    0.024106
   144  H    0.020157
 Sum of ESP charges =   0.00000

 Normal termination of Gaussian 16 at Mon Jan 20 21:43:39 2020.
