 Gaussian 16, Revision A.03,
 Gaussian 16:  ES64L-G16RevA.03 25-Dec-2016

 --------------------------
 #p pop=MKUFF b3lyp/lanl2dz
 --------------------------

 ---------------------
 O3G_1m_0sc_Sn_pop.gjf
 ---------------------
 Symbolic Z-matrix:
 Charge =  0 Multiplicity = 1

                         Standard orientation:
 ---------------------------------------------------------------------
 Center     Atomic      Atomic             Coordinates (Angstroms)
 Number     Number       Type             X           Y           Z
 ---------------------------------------------------------------------
      1          6           0       -0.108224   -0.720155   -0.006688
      2          6           0       -1.336260   -1.362717   -0.004735
      3          6           0       -1.253374   -2.783915   -0.000319
      4          6           0        0.037781   -3.222980    0.001089
      5         16           0        1.174876   -1.922763   -0.002909
      6          8           0       -2.482958   -0.624375   -0.006067
      7          1           0       -2.107731   -3.444741    0.002704
      8          6           0        0.155063    0.699993   -0.011089
      9          6           0        1.383100    1.342556   -0.013042
     10          6           0        1.301213    2.763782   -0.017458
     11          6           0        0.009059    3.202819   -0.018865
     12         16           0       -1.128065    1.903604   -0.013870
     13          8           0        2.529797    0.604216   -0.010710
     14          1           0        2.154542    3.425582   -0.019483
     15          6           0       -3.728607   -1.315463   -0.003964
     16          1           0       -3.821511   -1.944627    0.887991
     17          1           0       -3.821450   -1.950158   -0.893000
     18          6           0       -4.821328   -0.262443   -0.007271
     19          1           0       -4.724688    0.379357    0.879743
     20          1           0       -4.724627    0.373836   -0.898248
     21          8           0       -6.055982   -0.953216   -0.005169
     22          6           0       -7.183110   -0.095265   -0.007872
     23          1           0       -7.184716    0.553714    0.879117
     24          1           0       -7.184655    0.548193   -0.898874
     25          6           0       -8.424498   -0.969305   -0.005200
     26          1           0       -8.420924   -1.613706    0.885805
     27          1           0       -8.421863   -1.619252   -0.891186
     28          8           0       -9.548627   -0.111268   -0.007903
     29          6           0      -10.785309   -0.801095   -0.004804
     30          1           0      -10.877983   -1.438262    0.885176
     31          1           0      -10.878921   -1.443809   -0.891816
     32          6           0      -11.891650    0.238527   -0.008070
     33          1           0      -11.796006    0.876777   -0.899053
     34          1           0      -11.796067    0.882298    0.878938
     35          8           0      -13.124305   -0.452187   -0.005968
     36          6           0      -14.240638    0.413077   -0.008693
     37          1           0      -14.255092    1.053153   -0.902685
     38          1           0      -15.134043   -0.211859   -0.006783
     39          1           0      -14.255153    1.058693    0.881306
     40          6           0        3.775418    1.296304   -0.012816
     41          1           0        3.868290    1.929999    0.876224
     42          1           0        3.868351    1.924469   -0.904767
     43          6           0        4.868167    0.242288   -0.008505
     44          1           0        4.771437   -0.392992    0.882468
     45          1           0        4.771499   -0.398516   -0.896523
     46          8           0        6.102821    0.933060   -0.010608
     47          6           0        7.229949    0.075109   -0.007905
     48          1           0        7.231523   -0.569348    0.883101
     49          1           0        7.231556   -0.573870   -0.894894
     50          6           0        8.471337    0.949150   -0.010576
     51          1           0        8.468702    1.599100    0.876410
     52          1           0        8.468763    1.593582   -0.900582
     53          8           0        9.595495    0.090113   -0.007870
     54          6           0       10.832177    0.779946   -0.008970
     55          1           0       10.924790    1.422631    0.878042
     56          1           0       10.925851    1.417139   -0.899949
     57          6           0       11.937519   -0.259705   -0.005703
     58          1           0       11.842935   -0.903447   -0.892712
     59          1           0       11.841874   -0.897955    0.885280
     60          8           0       13.171173    0.431039   -0.007806
     61          6           0       14.287506   -0.434226   -0.005080
     62          1           0       14.302022   -1.079842   -0.895080
     63          1           0       15.180911    0.190714   -0.005990
     64          1           0       14.300961   -1.074331    0.888912
     65         50           0        0.394569   -5.332583    0.008652
     66          6           0       -0.298787   -6.370435    1.783859
     67          1           0       -1.355868   -6.522088    1.718294
     68          1           0        0.192671   -7.318475    1.857821
     69          1           0       -0.075502   -5.784082    2.650051
     70          6           0        2.563672   -5.270206    0.008533
     71          1           0        2.906125   -4.760871   -0.868041
     72          1           0        2.905950   -4.751445    0.879938
     73          1           0        2.949528   -6.268516    0.013646
     74          6           0       -0.298665   -6.381440   -1.760123
     75          1           0        0.153389   -7.350975   -1.800098
     76          1           0       -1.363099   -6.485953   -1.718835
     77          1           0       -0.028563   -5.826154   -2.632843
     78         50           0       -0.475073    5.287757   -0.024356
     79          6           0       -1.887078    6.064981   -1.477825
     80          1           0       -2.884932    5.872253   -1.144260
     81          1           0       -1.744356    7.120194   -1.584097
     82          1           0       -1.727308    5.586444   -2.421338
     83          6           0       -1.554713    5.854533    1.770855
     84          1           0       -1.552343    6.920344    1.866546
     85          1           0       -2.563063    5.504200    1.705908
     86          1           0       -1.079940    5.418651    2.625229
     87          6           0        1.245637    6.609762   -0.027402
     88          1           0        1.847570    6.413657    0.834232
     89          1           0        1.822663    6.441529   -0.912864
     90          1           0        0.913269    7.626698   -0.006571
 ---------------------------------------------------------------------

 SCF Done:  E(RB3LYP) =  -1725.43241811     A.U. after   15 cycles

 The electronic state is 1-A.
 Alpha  occ. eigenvalues --  -19.16796 -19.16775 -19.14499 -19.14426 -19.14059
 Alpha  occ. eigenvalues --  -19.14006 -19.13825 -19.13783 -10.25229 -10.25110
 Alpha  occ. eigenvalues --  -10.24800 -10.24756 -10.24056 -10.23989 -10.23697
 Alpha  occ. eigenvalues --  -10.23632 -10.23576 -10.23514 -10.23346 -10.23301
 Alpha  occ. eigenvalues --  -10.23284 -10.23245 -10.22991 -10.22959 -10.21835
 Alpha  occ. eigenvalues --  -10.21628 -10.19743 -10.19643 -10.19321 -10.19009
 Alpha  occ. eigenvalues --  -10.15933 -10.15930 -10.15543 -10.14869 -10.14307
 Alpha  occ. eigenvalues --  -10.13871  -1.08055  -1.07993  -1.05676  -1.05608
 Alpha  occ. eigenvalues --   -1.04968  -1.04901  -1.04200  -1.04131  -0.90121
 Alpha  occ. eigenvalues --   -0.88430  -0.80075  -0.79983  -0.77764  -0.77614
 Alpha  occ. eigenvalues --   -0.76490  -0.74217  -0.73793  -0.72511  -0.71117
 Alpha  occ. eigenvalues --   -0.70098  -0.69627  -0.69036  -0.68412  -0.67757
 Alpha  occ. eigenvalues --   -0.67398  -0.67103  -0.66728  -0.66624  -0.63111
 Alpha  occ. eigenvalues --   -0.62930  -0.61396  -0.61327  -0.60934  -0.60880
 Alpha  occ. eigenvalues --   -0.59027  -0.56811  -0.55589  -0.54889  -0.53692
 Alpha  occ. eigenvalues --   -0.51702  -0.51646  -0.51500  -0.51428  -0.50391
 Alpha  occ. eigenvalues --   -0.50345  -0.49289  -0.48422  -0.48340  -0.48321
 Alpha  occ. eigenvalues --   -0.48255  -0.47370  -0.47244  -0.46037  -0.45532
 Alpha  occ. eigenvalues --   -0.45053  -0.44917  -0.44912  -0.44832  -0.44256
 Alpha  occ. eigenvalues --   -0.44173  -0.43345  -0.43039  -0.43027  -0.42483
 Alpha  occ. eigenvalues --   -0.41248  -0.41026  -0.40885  -0.40627  -0.40597
 Alpha  occ. eigenvalues --   -0.40449  -0.40371  -0.40362  -0.40237  -0.40011
 Alpha  occ. eigenvalues --   -0.39655  -0.39447  -0.39335  -0.39071  -0.38959
 Alpha  occ. eigenvalues --   -0.38651  -0.38311  -0.38249  -0.37297  -0.36746
 Alpha  occ. eigenvalues --   -0.36650  -0.36059  -0.35959  -0.35704  -0.34576
 Alpha  occ. eigenvalues --   -0.33399  -0.32749  -0.32504  -0.32320  -0.32228
 Alpha  occ. eigenvalues --   -0.32021  -0.31717  -0.31661  -0.31193  -0.31155
 Alpha  occ. eigenvalues --   -0.29567  -0.29215  -0.28594  -0.27298  -0.27108
 Alpha  occ. eigenvalues --   -0.26506  -0.26452  -0.26442  -0.25948  -0.25898
 Alpha  occ. eigenvalues --   -0.25469  -0.25369  -0.25322  -0.23778  -0.23377
 Alpha  occ. eigenvalues --   -0.18186
 Alpha virt. eigenvalues --   -0.03991   0.00839   0.01633   0.03038   0.03574
 Alpha virt. eigenvalues --    0.04825   0.05752   0.05865   0.06138   0.06665
 Alpha virt. eigenvalues --    0.06788   0.07587   0.07820   0.08287   0.08651

 Mulliken charges:
               1
     1  C   -0.286270
     2  C    0.347886
     3  C   -0.205844
     4  C   -0.599419
     5  S    0.306528
     6  O   -0.306248
     7  H    0.241244
     8  C   -0.284385
     9  C    0.346636
    10  C   -0.215324
    11  C   -0.617315
    12  S    0.308856
    13  O   -0.305304
    14  H    0.254730
    15  C   -0.240280
    16  H    0.201159
    17  H    0.200654
    18  C   -0.229316
    19  H    0.190639
    20  H    0.190174
    21  O   -0.302971
    22  C   -0.218033
    23  H    0.186754
    24  H    0.186501
    25  C   -0.216872
    26  H    0.184510
    27  H    0.184770
    28  O   -0.305897
    29  C   -0.208469
    30  H    0.186383
    31  H    0.185914
    32  C   -0.231168
    33  H    0.184185
    34  H    0.184208
    35  O   -0.292474
    36  C   -0.448778
    37  H    0.187472
    38  H    0.222867
    39  H    0.187522
    40  C   -0.241559
    41  H    0.201543
    42  H    0.201471
    43  C   -0.228423
    44  H    0.190778
    45  H    0.190142
    46  O   -0.302871
    47  C   -0.217871
    48  H    0.186471
    49  H    0.186577
    50  C   -0.216879
    51  H    0.184716
    52  H    0.184950
    53  O   -0.306104
    54  C   -0.208076
    55  H    0.186089
    56  H    0.185950
    57  C   -0.231149
    58  H    0.184249
    59  H    0.184222
    60  O   -0.292856
    61  C   -0.448612
    62  H    0.187338
    63  H    0.222820
    64  H    0.187363
    65  Sn   1.193997
    66  C   -0.978426
    67  H    0.229504
    68  H    0.236684
    69  H    0.241667
    70  C   -1.008104
    71  H    0.236014
    72  H    0.235947
    73  H    0.222238
    74  C   -0.978016
    75  H    0.236269
    76  H    0.229473
    77  H    0.241548
    78  Sn   1.206698
    79  C   -0.980202
    80  H    0.233200
    81  H    0.232767
    82  H    0.228154
    83  C   -0.973779
    84  H    0.225030
    85  H    0.225474
    86  H    0.225857
    87  C   -0.996797
    88  H    0.236441
    89  H    0.232387
    90  H    0.240469
 Sum of Mulliken charges =  -0.00000

 Dipole moment (field-independent basis, Debye):
    X=             -0.1448    Y=             -1.1158    Z=             -0.3553  Tot=              1.1799
 Quadrupole moment (field-independent basis, Debye-Ang):
   XX=           -234.2648   YY=           -263.4760   ZZ=           -278.7106
   XY=            -20.2565   XZ=              0.4348   YZ=             -2.1420

 ESP charges:
               1
     1  C   -0.083378
     2  C    0.631296
     3  C   -0.556047
     4  C   -0.183442
     5  S   -0.122893
     6  O   -0.587213
     7  H    0.198041
     8  C   -0.080244
     9  C    0.630883
    10  C   -0.514038
    11  C   -0.250821
    12  S   -0.098200
    13  O   -0.538763
    14  H    0.207828
    15  C    0.267811
    16  H    0.034665
    17  H    0.033537
    18  C    0.495244
    19  H   -0.018260
    20  H   -0.019141
    21  O   -0.802224
    22  C    0.353388
    23  H   -0.011829
    24  H   -0.011678
    25  C    0.576233
    26  H   -0.047014
    27  H   -0.046452
    28  O   -0.784135
    29  C    0.362667
    30  H   -0.018199
    31  H   -0.017889
    32  C    0.330241
    33  H    0.014067
    34  H    0.013723
    35  O   -0.539939
    36  C   -0.012157
    37  H    0.060308
    38  H    0.106345
    39  H    0.060782
    40  C    0.123760
    41  H    0.064201
    42  H    0.061914
    43  C    0.535712
    44  H   -0.017578
    45  H   -0.018747
    46  O   -0.791624
    47  C    0.361127
    48  H   -0.017887
    49  H   -0.017131
    50  C    0.573469
    51  H   -0.045637
    52  H   -0.044969
    53  O   -0.783758
    54  C    0.317671
    55  H   -0.009936
    56  H   -0.012071
    57  C    0.410857
    58  H   -0.003874
    59  H   -0.003517
    60  O   -0.556771
    61  C   -0.021017
    62  H    0.062095
    63  H    0.110995
    64  H    0.061034
    65  Sn   1.146274
    66  C   -0.806478
    67  H    0.176704
    68  H    0.186163
    69  H    0.181009
    70  C   -0.849681
    71  H    0.189745
    72  H    0.189218
    73  H    0.172056
    74  C   -0.815569
    75  H    0.187915
    76  H    0.179507
    77  H    0.183505
    78  Sn   1.135830
    79  C   -0.760624
    80  H    0.172389
    81  H    0.170078
    82  H    0.149376
    83  C   -0.700926
    84  H    0.145133
    85  H    0.146910
    86  H    0.133439
    87  C   -0.893200
    88  H    0.202085
    89  H    0.193082
    90  H    0.214640
 Sum of ESP charges =   0.00000

 Normal termination of Gaussian 16 at Fri Jan 17 13:01:11 2020.
