 Gaussian 16, Revision A.03,
 Gaussian 16:  ES64L-G16RevA.03 25-Dec-2016

 ------------------------------------------------------
 # opt wb97xd/6-311+g(d,p) geom=connectivity pop=ChelpG
 ------------------------------------------------------

 -------------------
 Title Card Required
 -------------------
 Symbolic Z-matrix:
 Charge =  0 Multiplicity = 1

 SCF Done:  E(RwB97XD) =  -1255.23037867     A.U. after   15 cycles
 SCF Done:  E(RwB97XD) =  -1255.23437127     A.U. after   14 cycles
 SCF Done:  E(RwB97XD) =  -1255.23458251     A.U. after   12 cycles
 SCF Done:  E(RwB97XD) =  -1255.23458995     A.U. after   11 cycles
 Optimization completed.
    -- Stationary point found.

                         Standard orientation:
 ---------------------------------------------------------------------
 Center     Atomic      Atomic             Coordinates (Angstroms)
 Number     Number       Type             X           Y           Z
 ---------------------------------------------------------------------
      1          6           0        0.725171   -0.001908   -0.000015
      2          6           0        1.563800   -1.089592    0.000028
      3          6           0        2.945632   -0.758791    0.000003
      4          6           0        3.145604    0.586454   -0.000093
      5         16           0        1.672208    1.463967   -0.000012
      6          1           0        3.743174   -1.491773    0.000009
      7          1           0        4.087105    1.114218   -0.000154
      8          6           0       -0.725171    0.001908   -0.000014
      9          6           0       -1.563800    1.089592    0.000037
     10         16           0       -1.672208   -1.463967   -0.000016
     11          6           0       -2.945632    0.758791    0.000011
     12          6           0       -3.145604   -0.586454   -0.000093
     13          1           0       -3.743174    1.491773    0.000022
     14          1           0       -4.087105   -1.114218   -0.000156
     15          8           0        1.071110   -2.358500    0.000039
     16          8           0       -1.071110    2.358500    0.000057
     17          1           0       -1.792018    2.988395    0.000384
     18          1           0        1.792018   -2.988395    0.000392
 ---------------------------------------------------------------------

 The electronic state is 1-A.
 Alpha  occ. eigenvalues --  -89.04097 -89.04097 -19.28632 -19.28632 -10.34931
 Alpha  occ. eigenvalues --  -10.34931 -10.31943 -10.31906 -10.31390 -10.31390
 Alpha  occ. eigenvalues --  -10.29357 -10.29357  -8.08126  -8.08125  -6.02974
 Alpha  occ. eigenvalues --   -6.02974  -6.02575  -6.02575  -6.02206  -6.02206
 Alpha  occ. eigenvalues --   -1.17693  -1.17608  -0.99528  -0.97814  -0.87142
 Alpha  occ. eigenvalues --   -0.83413  -0.82590  -0.80554  -0.70374  -0.69443
 Alpha  occ. eigenvalues --   -0.68378  -0.64590  -0.62503  -0.57796  -0.56775
 Alpha  occ. eigenvalues --   -0.55521  -0.52603  -0.51899  -0.51065  -0.50418
 Alpha  occ. eigenvalues --   -0.46322  -0.46245  -0.45575  -0.43919  -0.43813
 Alpha  occ. eigenvalues --   -0.42371  -0.41241  -0.35933  -0.31494  -0.31347
 Alpha  occ. eigenvalues --   -0.25958
 Alpha virt. eigenvalues --    0.02689   0.05102   0.05853   0.06763   0.06766
 Alpha virt. eigenvalues --    0.07342   0.08520   0.09763   0.09798   0.10041
 Alpha virt. eigenvalues --    0.10626   0.11885   0.12053   0.12132   0.12145

 Mulliken charges:
               1
     1  C    0.434070
     2  C    0.128886
     3  C   -0.361280
     4  C   -0.258409
     5  S   -0.307560
     6  H    0.139296
     7  H    0.185496
     8  C    0.434070
     9  C    0.128886
    10  S   -0.307560
    11  C   -0.361280
    12  C   -0.258409
    13  H    0.139296
    14  H    0.185496
    15  O   -0.238007
    16  O   -0.238007
    17  H    0.277507
    18  H    0.277507
 Sum of Mulliken charges =  -0.00000

 Dipole moment (field-independent basis, Debye):
    X=             -0.0000    Y=              0.0000    Z=              0.0011  Tot=              0.0011
 Quadrupole moment (field-independent basis, Debye-Ang):
   XX=            -63.0866   YY=            -71.8819   ZZ=            -89.0797
   XY=            -10.2722   XZ=              0.0000   YZ=             -0.0001

 ESP charges:
               1
     1  C   -0.041661
     2  C    0.365029
     3  C   -0.329015
     4  C   -0.180301
     5  S   -0.001849
     6  H    0.158399
     7  H    0.187980
     8  C   -0.041661
     9  C    0.365029
    10  S   -0.001849
    11  C   -0.329015
    12  C   -0.180301
    13  H    0.158399
    14  H    0.187980
    15  O   -0.585478
    16  O   -0.585478
    17  H    0.426896
    18  H    0.426896
 Sum of ESP charges =   0.00000

 Normal termination of Gaussian 16 at Thu Feb  6 07:50:13 2020.
