 Gaussian 16, Revision A.03,
 Gaussian 16:  ES64L-G16RevA.03 25-Dec-2016

 -----------------------------------------------------
 # opt b3lyp/6-311+g(d,p) geom=connectivity pop=ChelpG
 -----------------------------------------------------

 -------------------
 Title Card Required
 -------------------
 Symbolic Z-matrix:
 Charge =  0 Multiplicity = 1

 SCF Done:  E(RB3LYP) =  -1255.42923307     A.U. after   14 cycles
 SCF Done:  E(RB3LYP) =  -1255.43236759     A.U. after   12 cycles
 SCF Done:  E(RB3LYP) =  -1255.43255130     A.U. after   11 cycles
 SCF Done:  E(RB3LYP) =  -1255.43256222     A.U. after   10 cycles
 Optimization completed.
    -- Stationary point found.

                         Standard orientation:
 ---------------------------------------------------------------------
 Center     Atomic      Atomic             Coordinates (Angstroms)
 Number     Number       Type             X           Y           Z
 ---------------------------------------------------------------------
      1          6           0        0.722496   -0.003624   -0.000019
      2          6           0        1.571787   -1.093831    0.000027
      3          6           0        2.954385   -0.763999   -0.000003
      4          6           0        3.162928    0.584867   -0.000115
      5         16           0        1.682051    1.473811    0.000001
      6          1           0        3.749041   -1.500485   -0.000001
      7          1           0        4.104659    1.111451   -0.000188
      8          6           0       -0.722496    0.003624   -0.000018
      9          6           0       -1.571787    1.093831    0.000036
     10         16           0       -1.682051   -1.473811   -0.000002
     11          6           0       -2.954385    0.763999    0.000005
     12          6           0       -3.162928   -0.584867   -0.000114
     13          1           0       -3.749041    1.500485    0.000013
     14          1           0       -4.104659   -1.111451   -0.000191
     15          8           0        1.076324   -2.371067    0.000041
     16          8           0       -1.076324    2.371067    0.000059
     17          1           0       -1.801508    3.003059    0.000394
     18          1           0        1.801508   -3.003059    0.000401
 ---------------------------------------------------------------------

 The electronic state is 1-A.
 Alpha  occ. eigenvalues --  -88.87441 -88.87441 -19.16383 -19.16382 -10.23777
 Alpha  occ. eigenvalues --  -10.23776 -10.20828 -10.20791 -10.20108 -10.20108
 Alpha  occ. eigenvalues --  -10.18249 -10.18248  -7.96001  -7.96001  -5.92316
 Alpha  occ. eigenvalues --   -5.92316  -5.91925  -5.91925  -5.91562  -5.91562
 Alpha  occ. eigenvalues --   -1.07374  -1.07298  -0.89114  -0.87409  -0.77239
 Alpha  occ. eigenvalues --   -0.73692  -0.72905  -0.70843  -0.61067  -0.60442
 Alpha  occ. eigenvalues --   -0.59263  -0.55619  -0.53589  -0.49120  -0.48091
 Alpha  occ. eigenvalues --   -0.47023  -0.43521  -0.43429  -0.42902  -0.41446
 Alpha  occ. eigenvalues --   -0.38340  -0.38203  -0.37626  -0.35285  -0.35061
 Alpha  occ. eigenvalues --   -0.34503  -0.33455  -0.28078  -0.24238  -0.24010
 Alpha  occ. eigenvalues --   -0.19172
 Alpha virt. eigenvalues --   -0.04188  -0.01570  -0.00639   0.00063   0.00827
 Alpha virt. eigenvalues --    0.00847   0.02965   0.03010   0.04003   0.04086
 Alpha virt. eigenvalues --    0.04623   0.05550   0.05808   0.05974   0.06342

 Mulliken charges:
               1
     1  C    0.400777
     2  C    0.095664
     3  C   -0.324309
     4  C   -0.200478
     5  S   -0.280724
     6  H    0.113512
     7  H    0.158439
     8  C    0.400777
     9  C    0.095664
    10  S   -0.280724
    11  C   -0.324309
    12  C   -0.200478
    13  H    0.113512
    14  H    0.158439
    15  O   -0.223682
    16  O   -0.223682
    17  H    0.260802
    18  H    0.260802
 Sum of Mulliken charges =  -0.00000

 Dipole moment (field-independent basis, Debye):
    X=             -0.0000    Y=              0.0000    Z=              0.0011  Tot=              0.0011
 Quadrupole moment (field-independent basis, Debye-Ang):
   XX=            -64.6206   YY=            -72.9266   ZZ=            -89.6218
   XY=            -10.2515   XZ=              0.0001   YZ=             -0.0001

 ESP charges:
               1
     1  C   -0.043399
     2  C    0.382783
     3  C   -0.323820
     4  C   -0.168744
     5  S   -0.005889
     6  H    0.150103
     7  H    0.176998
     8  C   -0.043398
     9  C    0.382783
    10  S   -0.005889
    11  C   -0.323820
    12  C   -0.168744
    13  H    0.150103
    14  H    0.176998
    15  O   -0.583911
    16  O   -0.583911
    17  H    0.415879
    18  H    0.415879
 Sum of ESP charges =   0.00000

 Normal termination of Gaussian 16 at Thu Feb  6 07:48:21 2020.
