 Gaussian 16, Revision A.03,
 Gaussian 16:  ES64L-G16RevA.03 25-Dec-2016

 ---------------------
 #p opt b3lyp/6-311g**
 ---------------------

 -----
 B.gjf
 -----
 Symbolic Z-matrix:
 Charge =  0 Multiplicity = 1

 SCF Done:  E(RB3LYP) =  -2571.73259469     A.U. after   14 cycles
 SCF Done:  E(RB3LYP) =  -2571.80613206     A.U. after   11 cycles
 SCF Done:  E(RB3LYP) =  -2571.85923570     A.U. after   12 cycles
 SCF Done:  E(RB3LYP) =  -2571.87665791     A.U. after   11 cycles
 SCF Done:  E(RB3LYP) =  -2571.87880423     A.U. after   10 cycles
 SCF Done:  E(RB3LYP) =  -2571.87906314     A.U. after   10 cycles
 SCF Done:  E(RB3LYP) =  -2571.87913398     A.U. after    9 cycles
 SCF Done:  E(RB3LYP) =  -2571.87914196     A.U. after    8 cycles
 SCF Done:  E(RB3LYP) =  -2571.87914527     A.U. after    8 cycles
 SCF Done:  E(RB3LYP) =  -2571.87914712     A.U. after    8 cycles
 SCF Done:  E(RB3LYP) =  -2571.87915193     A.U. after    8 cycles
 SCF Done:  E(RB3LYP) =  -2571.87915213     A.U. after    7 cycles
 SCF Done:  E(RB3LYP) =  -2571.87915223     A.U. after    6 cycles
 SCF Done:  E(RB3LYP) =  -2571.87915231     A.U. after    6 cycles
 SCF Done:  E(RB3LYP) =  -2571.87915237     A.U. after    6 cycles
 SCF Done:  E(RB3LYP) =  -2571.87915243     A.U. after    6 cycles
 SCF Done:  E(RB3LYP) =  -2571.87915248     A.U. after    6 cycles
 SCF Done:  E(RB3LYP) =  -2571.87915250     A.U. after    6 cycles
 SCF Done:  E(RB3LYP) =  -2571.87915250     A.U. after    5 cycles
 SCF Done:  E(RB3LYP) =  -2571.87915251     A.U. after    5 cycles
 Optimization completed.
    -- Stationary point found.

                         Standard orientation:
 ---------------------------------------------------------------------
 Center     Atomic      Atomic             Coordinates (Angstroms)
 Number     Number       Type             X           Y           Z
 ---------------------------------------------------------------------
      1          6           0        0.111472    0.713383    0.003202
      2          6           0        1.322614    1.388935    0.003022
      3          6           0        1.199002    2.807926    0.003109
      4          6           0       -0.104964    3.210686    0.003347
      5         16           0       -1.205139    1.879825    0.003524
      6          8           0        2.488278    0.681876    0.002808
      7          1           0        2.033453    3.493729    0.002977
      8          6           0       -0.111453   -0.713236    0.003202
      9          6           0       -1.322600   -1.388778    0.003153
     10          6           0       -1.199000   -2.807768    0.003206
     11          6           0        0.104963   -3.210543    0.003289
     12         16           0        1.205149   -1.879687    0.003379
     13          8           0       -2.488257   -0.681703    0.003147
     14          1           0       -2.033457   -3.493563    0.003164
     15          6           0        3.720527    1.406144    0.002523
     16          1           0        3.771445    2.047811    0.891624
     17          1           0        3.771025    2.047851   -0.886573
     18          6           0        4.857852    0.397570    0.002228
     19          1           0        4.752804   -0.246532    0.881354
     20          1           0        4.751749   -0.247139   -0.876325
     21          6           0        6.235810    1.068437    0.001177
     22          1           0        6.326921    1.720335   -0.876733
     23          1           0        6.327682    1.721547    0.878109
     24          6           0        7.393131    0.062871    0.001380
     25          1           0        7.302110   -0.588940    0.879274
     26          1           0        7.300997   -0.590590   -0.875170
     27          6           0        8.771289    0.731958   -0.000117
     28          1           0        8.877495    1.378486    0.877717
     29          1           0        8.876412    1.376781   -0.879333
     30          6           0        9.916669   -0.269205    0.000153
     31          1           0        9.860523   -0.918921    0.888071
     32          1           0        9.859488   -0.920584   -0.886478
     33          8           0       11.141996    0.445261   -0.001228
     34          6           0       12.282668   -0.391019   -0.001224
     35          1           0       12.299522   -1.038075    0.887852
     36          1           0       12.298495   -1.039484   -0.889292
     37          6           0       13.508378    0.505505   -0.002647
     38          1           0       13.494254    1.153184    0.885456
     39          1           0       13.493170    1.151838   -0.891713
     40          8           0       14.650286   -0.330935   -0.002709
     41          6           0       15.871969    0.384146   -0.003959
     42          1           0       15.953479    1.026718    0.884172
     43          1           0       15.952412    1.025435   -0.893114
     44          6           0       16.999389   -0.632907   -0.003902
     45          1           0       16.916339   -1.276548   -0.892185
     46          1           0       16.917404   -1.275268    0.885408
     47          8           0       18.219046    0.082206   -0.005147
     48          6           0       19.352152   -0.761129   -0.005206
     49          1           0       19.377907   -1.404098   -0.896932
     50          1           0       20.233205   -0.118746   -0.006197
     51          1           0       19.378966   -1.402797    0.887427
     52          6           0       -3.720517   -1.405959    0.002210
     53          1           0       -3.771783   -2.047870    0.891118
     54          1           0       -3.770683   -2.047427   -0.887076
     55          6           0       -4.857839   -0.397382    0.001781
     56          1           0       -4.752783    0.246827    0.880824
     57          1           0       -4.751790    0.247203   -0.876867
     58          6           0       -6.235789   -1.068283    0.000861
     59          1           0       -6.327746   -1.721013    0.878067
     60          1           0       -6.326780   -1.720577   -0.876770
     61          6           0       -7.393128   -0.062743    0.000467
     62          1           0       -7.301985    0.589774    0.877822
     63          1           0       -7.301166    0.590018   -0.876622
     64          6           0       -8.771271   -0.731876   -0.000269
     65          1           0       -8.877344   -1.377638    0.878141
     66          1           0       -8.876492   -1.377466   -0.878908
     67          6           0       -9.916682    0.269258   -0.000722
     68          1           0       -9.860440    0.919748    0.886620
     69          1           0       -9.859639    0.919860   -0.887931
     70          8           0      -11.141980   -0.445258   -0.001318
     71          6           0      -12.282699    0.390960   -0.001822
     72          1           0      -12.299426    1.038775    0.886704
     73          1           0      -12.298724    1.038667   -0.890441
     74          6           0      -13.508362   -0.505627   -0.002262
     75          1           0      -13.494073   -1.152520    0.886411
     76          1           0      -13.493257   -1.152745   -0.890759
     77          8           0      -14.650311    0.330756   -0.002890
     78          6           0      -15.871958   -0.384386   -0.003281
     79          1           0      -15.953290   -1.026145    0.885455
     80          1           0      -15.952514   -1.026499   -0.891832
     81          6           0      -16.999428    0.632611   -0.003976
     82          1           0      -16.916560    1.275433   -0.892869
     83          1           0      -16.917325    1.275798    0.884725
     84          8           0      -18.219048   -0.082565   -0.004354
     85          6           0      -19.352197    0.760712   -0.005002
     86          1           0      -19.378135    1.402854   -0.897320
     87          1           0      -20.233218    0.118285   -0.005249
     88          1           0      -19.378892    1.403206    0.887040
     89          1           0       -0.486127    4.219970    0.003419
     90          1           0        0.486134   -4.219826    0.003298
 ---------------------------------------------------------------------

 The electronic state is 1-A.
 Alpha  occ. eigenvalues --  -88.86617 -88.86617 -19.14923 -19.14923 -19.12378
 Alpha  occ. eigenvalues --  -19.12378 -19.12141 -19.12141 -19.12124 -19.12124
 Alpha  occ. eigenvalues --  -10.22886 -10.22886 -10.22709 -10.22709 -10.21714
 Alpha  occ. eigenvalues --  -10.21714 -10.21612 -10.21612 -10.21592 -10.21592
 Alpha  occ. eigenvalues --  -10.21546 -10.21546 -10.21525 -10.21525 -10.21326
 Alpha  occ. eigenvalues --  -10.21326 -10.19867 -10.19831 -10.19043 -10.19043
 Alpha  occ. eigenvalues --  -10.17508 -10.17508 -10.17341 -10.17341 -10.17273
 Alpha  occ. eigenvalues --  -10.17273 -10.17164 -10.17164 -10.16851 -10.16851
 Alpha  occ. eigenvalues --   -7.95198  -7.95197  -5.91507  -5.91507  -5.91120
 Alpha  occ. eigenvalues --   -5.91120  -5.90771  -5.90771  -1.06707  -1.06633
 Alpha  occ. eigenvalues --   -1.04608  -1.04608  -1.03845  -1.03845  -1.03287
 Alpha  occ. eigenvalues --   -1.03287  -0.88402  -0.86632  -0.82020  -0.81984
 Alpha  occ. eigenvalues --   -0.79195  -0.79154  -0.77576  -0.77540  -0.76218
 Alpha  occ. eigenvalues --   -0.74592  -0.74162  -0.72585  -0.72195  -0.71096
 Alpha  occ. eigenvalues --   -0.69856  -0.68651  -0.66864  -0.66623  -0.64143
 Alpha  occ. eigenvalues --   -0.63981  -0.60983  -0.60978  -0.60963  -0.60878
 Alpha  occ. eigenvalues --   -0.60180  -0.59889  -0.59347  -0.58969  -0.58794
 Alpha  occ. eigenvalues --   -0.56779  -0.54934  -0.54678  -0.52980  -0.51627
 Alpha  occ. eigenvalues --   -0.51624  -0.50958  -0.50956  -0.50260  -0.50234
 Alpha  occ. eigenvalues --   -0.49259  -0.49238  -0.48707  -0.48698  -0.47980
 Alpha  occ. eigenvalues --   -0.47530  -0.47497  -0.47241  -0.47235  -0.46130
 Alpha  occ. eigenvalues --   -0.45378  -0.45314  -0.45246  -0.45233  -0.45193
 Alpha  occ. eigenvalues --   -0.44413  -0.44348  -0.43540  -0.43487  -0.43436
 Alpha  occ. eigenvalues --   -0.43177  -0.41385  -0.41330  -0.41016  -0.40676
 Alpha  occ. eigenvalues --   -0.40668  -0.40539  -0.39631  -0.38765  -0.38102
 Alpha  occ. eigenvalues --   -0.38052  -0.37886  -0.37505  -0.37030  -0.36658
 Alpha  occ. eigenvalues --   -0.36611  -0.36020  -0.35879  -0.35772  -0.35037
 Alpha  occ. eigenvalues --   -0.34529  -0.34454  -0.34453  -0.34446  -0.34058
 Alpha  occ. eigenvalues --   -0.33575  -0.33380  -0.33377  -0.32811  -0.32523
 Alpha  occ. eigenvalues --   -0.32415  -0.32233  -0.32227  -0.32196  -0.32124
 Alpha  occ. eigenvalues --   -0.32045  -0.31752  -0.31719  -0.27038  -0.26792
 Alpha  occ. eigenvalues --   -0.26791  -0.26266  -0.26266  -0.25850  -0.25850
 Alpha  occ. eigenvalues --   -0.23394  -0.23072  -0.17917
 Alpha virt. eigenvalues --   -0.03408   0.01481   0.02774   0.02914   0.03708
 Alpha virt. eigenvalues --    0.03772   0.04416   0.04444   0.04697   0.04728
 Alpha virt. eigenvalues --    0.05229   0.05238   0.05585   0.05806   0.05820

 Mulliken charges:
               1
     1  C   -0.232167
     2  C    0.237463
     3  C   -0.092992
     4  C   -0.306479
     5  S    0.312056
     6  O   -0.378558
     7  H    0.104424
     8  C   -0.232163
     9  C    0.237463
    10  C   -0.092989
    11  C   -0.306481
    12  S    0.312053
    13  O   -0.378562
    14  H    0.104424
    15  C   -0.009705
    16  H    0.107460
    17  H    0.107447
    18  C   -0.219583
    19  H    0.122489
    20  H    0.122516
    21  C   -0.216756
    22  H    0.106207
    23  H    0.106194
    24  C   -0.218966
    25  H    0.106848
    26  H    0.106844
    27  C   -0.224994
    28  H    0.112954
    29  H    0.112957
    30  C    0.035238
    31  H    0.086389
    32  H    0.086386
    33  O   -0.384650
    34  C    0.000341
    35  H    0.093215
    36  H    0.093220
    37  C    0.002081
    38  H    0.095832
    39  H    0.095834
    40  O   -0.390378
    41  C    0.001589
    42  H    0.096755
    43  H    0.096755
    44  C   -0.008218
    45  H    0.093768
    46  H    0.093768
    47  O   -0.370352
    48  C   -0.101766
    49  H    0.088872
    50  H    0.115251
    51  H    0.088872
    52  C   -0.009705
    53  H    0.107447
    54  H    0.107460
    55  C   -0.219579
    56  H    0.122502
    57  H    0.122505
    58  C   -0.216762
    59  H    0.106198
    60  H    0.106203
    61  C   -0.218964
    62  H    0.106846
    63  H    0.106847
    64  C   -0.224997
    65  H    0.112957
    66  H    0.112955
    67  C    0.035239
    68  H    0.086389
    69  H    0.086387
    70  O   -0.384652
    71  C    0.000343
    72  H    0.093215
    73  H    0.093220
    74  C    0.002081
    75  H    0.095831
    76  H    0.095835
    77  O   -0.390377
    78  C    0.001588
    79  H    0.096756
    80  H    0.096754
    81  C   -0.008218
    82  H    0.093768
    83  H    0.093768
    84  O   -0.370352
    85  C   -0.101765
    86  H    0.088872
    87  H    0.115251
    88  H    0.088872
    89  H    0.125539
    90  H    0.125540
 Sum of Mulliken charges =  -0.00000

 Dipole moment (field-independent basis, Debye):
    X=             -0.0001    Y=             -0.0000    Z=             -0.0006  Tot=              0.0006
 Quadrupole moment (field-independent basis, Debye-Ang):
   XX=           -223.6656   YY=           -249.5094   ZZ=           -263.3369
   XY=            -27.9279   XZ=              0.0163   YZ=              0.0022

 Normal termination of Gaussian 16 at Tue Mar 31 10:26:59 2020.
