 Gaussian 16, Revision A.03,
 Gaussian 16:  ES64L-G16RevA.03 25-Dec-2016

 ---------------------
 #p opt b3lyp/6-311g**
 ---------------------

 -----
 E.gjf
 -----
 Symbolic Z-matrix:
 Charge =  0 Multiplicity = 1

 SCF Done:  E(RB3LYP) =  -2414.54619192     A.U. after   14 cycles
 SCF Done:  E(RB3LYP) =  -2414.57166810     A.U. after   11 cycles
 SCF Done:  E(RB3LYP) =  -2414.58059973     A.U. after   11 cycles
 SCF Done:  E(RB3LYP) =  -2414.58193648     A.U. after   10 cycles
 SCF Done:  E(RB3LYP) =  -2414.58206162     A.U. after    9 cycles
 SCF Done:  E(RB3LYP) =  -2414.58207618     A.U. after    9 cycles
 SCF Done:  E(RB3LYP) =  -2414.58207991     A.U. after    7 cycles
 SCF Done:  E(RB3LYP) =  -2414.58208194     A.U. after    7 cycles
 SCF Done:  E(RB3LYP) =  -2414.58208345     A.U. after    8 cycles
 SCF Done:  E(RB3LYP) =  -2414.58208433     A.U. after    8 cycles
 SCF Done:  E(RB3LYP) =  -2414.58208521     A.U. after    8 cycles
 SCF Done:  E(RB3LYP) =  -2414.58208625     A.U. after    8 cycles
 SCF Done:  E(RB3LYP) =  -2414.58208665     A.U. after    8 cycles
 SCF Done:  E(RB3LYP) =  -2414.58208670     A.U. after    6 cycles
 SCF Done:  E(RB3LYP) =  -2414.58208672     A.U. after    6 cycles
 Optimization completed.
    -- Stationary point found.

                         Standard orientation:
 ---------------------------------------------------------------------
 Center     Atomic      Atomic             Coordinates (Angstroms)
 Number     Number       Type             X           Y           Z
 ---------------------------------------------------------------------
      1          6           0        0.127855   -0.710729   -0.000997
      2          6           0        1.354048   -1.358274   -0.000646
      3          6           0        1.263546   -2.779700   -0.000675
      4          6           0       -0.030719   -3.212498   -0.001041
      5         16           0       -1.161314   -1.907427   -0.001381
      6          8           0        2.503282   -0.624339   -0.000264
      7          1           0        2.113617   -3.446062   -0.000449
      8          6           0       -0.127859    0.710430   -0.001001
      9          6           0       -1.354033    1.358022   -0.001526
     10          6           0       -1.263487    2.779442   -0.001342
     11          6           0        0.030789    3.212201   -0.000688
     12         16           0        1.161339    1.907083   -0.000249
     13          8           0       -2.503304    0.624144   -0.002266
     14          1           0       -2.113539    3.445829   -0.001719
     15          6           0        3.751236   -1.320029   -0.000269
     16          1           0        3.818366   -1.959636   -0.889549
     17          1           0        3.818199   -1.959910    0.888825
     18          6           0        4.863357   -0.283621    0.000000
     19          1           0        4.740518    0.357141   -0.879183
     20          1           0        4.740140    0.357066    0.879186
     21          6           0        6.252908   -0.928594    0.000280
     22          1           0        6.376483   -1.570330   -0.878703
     23          1           0        6.376145   -1.570294    0.879335
     24          6           0        7.373520    0.100667    0.000460
     25          1           0        7.300481    0.748898   -0.886946
     26          1           0        7.300218    0.748879    0.887860
     27          8           0        8.613152   -0.586888    0.000640
     28          6           0        9.736010    0.274199    0.000579
     29          1           0        9.738049    0.921601   -0.888216
     30          1           0        9.737791    0.922063    0.889038
     31          6           0       10.980719   -0.595731    0.000968
     32          1           0       10.980120   -1.243213   -0.887407
     33          1           0       10.980060   -1.242551    0.889825
     34          8           0       12.103624    0.265664    0.000690
     35          6           0       13.341069   -0.422128    0.001091
     36          1           0       13.436239   -1.062449   -0.887269
     37          1           0       13.436133   -1.061606    0.890070
     38          6           0       14.445586    0.619749    0.000664
     39          1           0       14.348753    1.261180    0.889146
     40          1           0       14.348886    1.260313   -0.888458
     41          8           0       15.680623   -0.068328    0.001091
     42          6           0       16.794988    0.799730    0.000755
     43          1           0       16.807060    1.442863    0.892632
     44          1           0       17.689892    0.176807    0.001130
     45          1           0       16.807201    1.441992   -0.891747
     46          6           0       -3.751227    1.319891   -0.001195
     47          1           0       -3.818693    1.960208   -0.889942
     48          1           0       -3.817799    1.959067    0.888436
     49          6           0       -4.863400    0.283540   -0.001357
     50          1           0       -4.740846   -0.356585   -0.881049
     51          1           0       -4.739968   -0.357806    0.877316
     52          6           0       -6.252891    0.928569   -0.000196
     53          1           0       -6.376690    1.570940   -0.878683
     54          1           0       -6.375832    1.569663    0.879348
     55          6           0       -7.373545   -0.100636   -0.000415
     56          1           0       -7.300761   -0.748288   -0.888266
     57          1           0       -7.300053   -0.749434    0.886541
     58          8           0       -8.613143    0.586979    0.000527
     59          6           0       -9.736029   -0.274068    0.000054
     60          1           0       -9.738266   -0.920816   -0.889217
     61          1           0       -9.737658   -0.922588    0.888035
     62          6           0      -10.980707    0.595907    0.001327
     63          1           0      -10.980243    1.244059   -0.886559
     64          1           0      -10.979863    1.242057    0.890671
     65          8           0      -12.103644   -0.265445    0.000603
     66          6           0      -13.341064    0.422392    0.001772
     67          1           0      -13.436391    1.063383   -0.886089
     68          1           0      -13.435922    1.061207    0.891249
     69          6           0      -14.445623   -0.619442    0.000787
     70          1           0      -14.348647   -1.261531    0.888778
     71          1           0      -14.349114   -1.259354   -0.888825
     72          8           0      -15.680635    0.068681    0.001955
     73          6           0      -16.795034   -0.799333    0.001218
     74          1           0      -16.806950   -1.443108    0.892633
     75          1           0      -17.689915   -0.176379    0.002221
     76          1           0      -16.807451   -1.440952   -0.891745
     77          1           0        0.388521    4.230021   -0.000454
     78          1           0       -0.388387   -4.230335   -0.001181
 ---------------------------------------------------------------------

 The electronic state is 1-A.
 Alpha  occ. eigenvalues --  -88.86732 -88.86732 -19.15082 -19.15082 -19.12473
 Alpha  occ. eigenvalues --  -19.12473 -19.12375 -19.12375 -19.12184 -19.12184
 Alpha  occ. eigenvalues --  -10.23112 -10.23112 -10.22835 -10.22835 -10.22074
 Alpha  occ. eigenvalues --  -10.22074 -10.21742 -10.21742 -10.21713 -10.21713
 Alpha  occ. eigenvalues --  -10.21663 -10.21663 -10.21578 -10.21578 -10.21360
 Alpha  occ. eigenvalues --  -10.21360 -10.19989 -10.19953 -10.19151 -10.19151
 Alpha  occ. eigenvalues --  -10.17720 -10.17720 -10.17539 -10.17538 -10.17273
 Alpha  occ. eigenvalues --  -10.17273  -7.95314  -7.95313  -5.91623  -5.91623
 Alpha  occ. eigenvalues --   -5.91236  -5.91236  -5.90887  -5.90887  -1.06877
 Alpha  occ. eigenvalues --   -1.06804  -1.04734  -1.04734  -1.04005  -1.04005
 Alpha  occ. eigenvalues --   -1.03407  -1.03407  -0.88528  -0.86754  -0.81478
 Alpha  occ. eigenvalues --   -0.81407  -0.78363  -0.78355  -0.76667  -0.75694
 Alpha  occ. eigenvalues --   -0.75035  -0.73070  -0.72677  -0.71470  -0.70337
 Alpha  occ. eigenvalues --   -0.68921  -0.66920  -0.66672  -0.63665  -0.63594
 Alpha  occ. eigenvalues --   -0.61123  -0.61122  -0.60876  -0.60845  -0.60059
 Alpha  occ. eigenvalues --   -0.59936  -0.59187  -0.57026  -0.55153  -0.54886
 Alpha  occ. eigenvalues --   -0.53151  -0.51777  -0.51773  -0.51202  -0.51196
 Alpha  occ. eigenvalues --   -0.50342  -0.50320  -0.48897  -0.48866  -0.48797
 Alpha  occ. eigenvalues --   -0.48772  -0.48131  -0.47469  -0.47363  -0.46705
 Alpha  occ. eigenvalues --   -0.46643  -0.46277  -0.45610  -0.45312  -0.45283
 Alpha  occ. eigenvalues --   -0.44150  -0.44071  -0.44070  -0.44042  -0.43373
 Alpha  occ. eigenvalues --   -0.42935  -0.41969  -0.41382  -0.41008  -0.40654
 Alpha  occ. eigenvalues --   -0.39918  -0.38986  -0.38683  -0.38278  -0.38026
 Alpha  occ. eigenvalues --   -0.37272  -0.37066  -0.36995  -0.36885  -0.36022
 Alpha  occ. eigenvalues --   -0.35967  -0.35879  -0.35710  -0.35083  -0.34292
 Alpha  occ. eigenvalues --   -0.34249  -0.34199  -0.33203  -0.33028  -0.32595
 Alpha  occ. eigenvalues --   -0.32423  -0.32416  -0.32293  -0.32292  -0.32226
 Alpha  occ. eigenvalues --   -0.32101  -0.31894  -0.27153  -0.26914  -0.26912
 Alpha  occ. eigenvalues --   -0.26413  -0.26412  -0.25962  -0.25962  -0.23510
 Alpha  occ. eigenvalues --   -0.23196  -0.18043
 Alpha virt. eigenvalues --   -0.03522   0.01374   0.02674   0.02788   0.03902
 Alpha virt. eigenvalues --    0.03950   0.04514   0.04525   0.04820   0.04923
 Alpha virt. eigenvalues --    0.05172   0.05174   0.05974   0.06319   0.06325

 Mulliken charges:
               1
     1  C   -0.231686
     2  C    0.237287
     3  C   -0.092803
     4  C   -0.306037
     5  S    0.311760
     6  O   -0.378650
     7  H    0.105194
     8  C   -0.231703
     9  C    0.237289
    10  C   -0.092804
    11  C   -0.306046
    12  S    0.311771
    13  O   -0.378645
    14  H    0.105194
    15  C   -0.009405
    16  H    0.109099
    17  H    0.109089
    18  C   -0.235360
    19  H    0.123993
    20  H    0.123998
    21  C   -0.239436
    22  H    0.114819
    23  H    0.114821
    24  C    0.035533
    25  H    0.088994
    26  H    0.089002
    27  O   -0.384946
    28  C   -0.000352
    29  H    0.094445
    30  H    0.094435
    31  C    0.002354
    32  H    0.095981
    33  H    0.095975
    34  O   -0.390283
    35  C    0.001311
    36  H    0.096997
    37  H    0.097000
    38  C   -0.008142
    39  H    0.093891
    40  H    0.093891
    41  O   -0.370378
    42  C   -0.101848
    43  H    0.089004
    44  H    0.115373
    45  H    0.089005
    46  C   -0.009407
    47  H    0.109082
    48  H    0.109104
    49  C   -0.235355
    50  H    0.123986
    51  H    0.124001
    52  C   -0.239433
    53  H    0.114816
    54  H    0.114822
    55  C    0.035532
    56  H    0.088992
    57  H    0.089005
    58  O   -0.384943
    59  C   -0.000354
    60  H    0.094446
    61  H    0.094434
    62  C    0.002354
    63  H    0.095980
    64  H    0.095976
    65  O   -0.390283
    66  C    0.001311
    67  H    0.096997
    68  H    0.097000
    69  C   -0.008142
    70  H    0.093890
    71  H    0.093892
    72  O   -0.370379
    73  C   -0.101848
    74  H    0.089005
    75  H    0.115373
    76  H    0.089005
    77  H    0.126080
    78  H    0.126081
 Sum of Mulliken charges =  -0.00000

 Dipole moment (field-independent basis, Debye):
    X=              0.0001    Y=             -0.0000    Z=             -0.0002  Tot=              0.0003
 Quadrupole moment (field-independent basis, Debye-Ang):
   XX=           -194.7336   YY=           -222.4003   ZZ=           -236.8850
   XY=             22.9864   XZ=              0.0100   YZ=             -0.0022

 Normal termination of Gaussian 16 at Tue Mar 31 08:55:06 2020.
