 Gaussian 16, Revision A.03,
 Gaussian 16:  ES64L-G16RevA.03 25-Dec-2016

 ---------------------
 #p opt b3lyp/6-311g**
 ---------------------

 -----
 M.gjf
 -----
 Symbolic Z-matrix:
 Charge =  0 Multiplicity = 1

 SCF Done:  E(RB3LYP) =  -2335.88382648     A.U. after   14 cycles
 SCF Done:  E(RB3LYP) =  -2335.91499058     A.U. after   12 cycles
 SCF Done:  E(RB3LYP) =  -2335.92809939     A.U. after   12 cycles
 SCF Done:  E(RB3LYP) =  -2335.92996983     A.U. after   11 cycles
 SCF Done:  E(RB3LYP) =  -2335.93063466     A.U. after   11 cycles
 SCF Done:  E(RB3LYP) =  -2335.93077455     A.U. after   10 cycles
 SCF Done:  E(RB3LYP) =  -2335.93080875     A.U. after    9 cycles
 SCF Done:  E(RB3LYP) =  -2335.93082788     A.U. after   10 cycles
 SCF Done:  E(RB3LYP) =  -2335.93083616     A.U. after    8 cycles
 SCF Done:  E(RB3LYP) =  -2335.93084305     A.U. after    9 cycles
 SCF Done:  E(RB3LYP) =  -2335.93084656     A.U. after    8 cycles
 SCF Done:  E(RB3LYP) =  -2335.93084957     A.U. after    9 cycles
 SCF Done:  E(RB3LYP) =  -2335.93085291     A.U. after    9 cycles
 SCF Done:  E(RB3LYP) =  -2335.93085504     A.U. after    8 cycles
 SCF Done:  E(RB3LYP) =  -2335.93085537     A.U. after    8 cycles
 SCF Done:  E(RB3LYP) =  -2335.93085552     A.U. after    8 cycles
 SCF Done:  E(RB3LYP) =  -2335.93085556     A.U. after    6 cycles
 Optimization completed.
    -- Stationary point found.

                         Standard orientation:
 ---------------------------------------------------------------------
 Center     Atomic      Atomic             Coordinates (Angstroms)
 Number     Number       Type             X           Y           Z
 ---------------------------------------------------------------------
      1          6           0        0.083594    0.717144   -0.001984
      2          6           0        1.267404    1.439126   -0.002510
      3          6           0        1.089491    2.852071   -0.002292
      4          6           0       -0.229292    3.203842   -0.001608
      5         16           0       -1.276855    1.831658   -0.001242
      6          8           0        2.459819    0.776372   -0.003383
      7          1           0        1.896248    3.570260   -0.002580
      8          6           0       -0.083605   -0.717193   -0.002059
      9          6           0       -1.267422   -1.439161   -0.001434
     10          6           0       -1.089512   -2.852108   -0.001656
     11          6           0        0.229270   -3.203889   -0.002460
     12         16           0        1.276840   -1.831712   -0.002916
     13          8           0       -2.459830   -0.776390   -0.000678
     14          1           0       -1.896269   -3.570295   -0.001238
     15          6           0        3.660756    1.547876   -0.001627
     16          1           0        3.686524    2.192131   -0.890091
     17          1           0        3.685016    2.190472    0.888069
     18          6           0        4.831588    0.578241   -0.001685
     19          1           0        4.768359   -0.066734    0.878339
     20          1           0        4.769427   -0.065203   -0.882921
     21          6           0        6.173730    1.296416   -0.000268
     22          1           0        6.270073    1.943116   -0.887104
     23          1           0        6.269036    1.941616    0.887773
     24          8           0        7.197348    0.317855   -0.000483
     25          6           0        8.501662    0.867326    0.000855
     26          1           0        8.667506    1.493936   -0.887357
     27          1           0        8.666236    1.492586    0.890252
     28          6           0        9.485908   -0.289067    0.000650
     29          1           0        9.322304   -0.914341   -0.888462
     30          1           0        9.321341   -0.915519    0.888753
     31          8           0       10.789491    0.261812    0.001730
     32          6           0       11.814001   -0.715584    0.001795
     33          1           0       11.745295   -1.358237   -0.887253
     34          1           0       11.744289   -1.359173    0.890087
     35          6           0       13.145225    0.014697    0.002934
     36          1           0       13.212435    0.658970    0.892118
     37          1           0       13.213465    0.659869   -0.885519
     38          8           0       14.167171   -0.962119    0.003032
     39          6           0       15.464254   -0.402714    0.004038
     40          1           0       15.637365    0.215750    0.896643
     41          1           0       16.173382   -1.230965    0.004036
     42          1           0       15.638375    0.216618   -0.887769
     43          6           0       -3.660783   -1.547865   -0.000540
     44          1           0       -3.685592   -2.191471    0.888417
     45          1           0       -3.686048   -2.191092   -0.889755
     46          6           0       -4.831587   -0.578207   -0.000051
     47          1           0       -4.769134    0.066114   -0.880620
     48          1           0       -4.768634    0.065880    0.880648
     49          6           0       -6.173730   -1.296385    0.000207
     50          1           0       -6.269734   -1.942260   -0.887267
     51          1           0       -6.269358   -1.942414    0.887610
     52          8           0       -7.197347   -0.317832    0.000515
     53          6           0       -8.501662   -0.867303    0.000903
     54          1           0       -8.667172   -1.493170   -0.887895
     55          1           0       -8.666570   -1.493307    0.889716
     56          6           0       -9.485899    0.289094    0.001302
     57          1           0       -9.322000    0.915088   -0.887249
     58          1           0       -9.321627    0.914825    0.889969
     59          8           0      -10.789478   -0.261790    0.001501
     60          6           0      -11.813982    0.715611    0.002001
     61          1           0      -11.744968    1.358981   -0.886504
     62          1           0      -11.744576    1.358481    0.890837
     63          6           0      -13.145201   -0.014677    0.002090
     64          1           0      -13.212713   -0.659673    0.890726
     65          1           0      -13.213136   -0.659125   -0.886912
     66          8           0      -14.167142    0.962142    0.002634
     67          6           0      -15.464224    0.402735    0.002725
     68          1           0      -15.637648   -0.216463    0.894760
     69          1           0      -16.173350    1.230987    0.003157
     70          1           0      -15.638032   -0.215863   -0.889652
     71          1           0       -0.649539    4.197461   -0.001304
     72          1           0        0.649495   -4.197518   -0.002813
 ---------------------------------------------------------------------

 The electronic state is 1-A.
 Alpha  occ. eigenvalues --  -88.86716 -88.86716 -19.15192 -19.15192 -19.12628
 Alpha  occ. eigenvalues --  -19.12628 -19.12526 -19.12526 -19.12203 -19.12203
 Alpha  occ. eigenvalues --  -10.23390 -10.23390 -10.22859 -10.22858 -10.22547
 Alpha  occ. eigenvalues --  -10.22547 -10.21877 -10.21877 -10.21802 -10.21802
 Alpha  occ. eigenvalues --  -10.21692 -10.21692 -10.21606 -10.21606 -10.21376
 Alpha  occ. eigenvalues --  -10.21376 -10.19995 -10.19959 -10.19149 -10.19149
 Alpha  occ. eigenvalues --  -10.17442 -10.17442 -10.17299 -10.17299  -7.95296
 Alpha  occ. eigenvalues --   -7.95296  -5.91606  -5.91606  -5.91218  -5.91218
 Alpha  occ. eigenvalues --   -5.90870  -5.90870  -1.06998  -1.06926  -1.04855
 Alpha  occ. eigenvalues --   -1.04854  -1.04160  -1.04160  -1.03478  -1.03478
 Alpha  occ. eigenvalues --   -0.88547  -0.86767  -0.80730  -0.80634  -0.78000
 Alpha  occ. eigenvalues --   -0.77991  -0.76389  -0.74535  -0.74060  -0.72387
 Alpha  occ. eigenvalues --   -0.71888  -0.70554  -0.68306  -0.67529  -0.65922
 Alpha  occ. eigenvalues --   -0.65541  -0.61406  -0.61276  -0.61219  -0.61097
 Alpha  occ. eigenvalues --   -0.60814  -0.60624  -0.59368  -0.57086  -0.55463
 Alpha  occ. eigenvalues --   -0.55175  -0.53197  -0.51828  -0.51818  -0.51394
 Alpha  occ. eigenvalues --   -0.51386  -0.50328  -0.50308  -0.49122  -0.49048
 Alpha  occ. eigenvalues --   -0.48595  -0.48558  -0.48086  -0.47334  -0.47318
 Alpha  occ. eigenvalues --   -0.46020  -0.45976  -0.45880  -0.45567  -0.45196
 Alpha  occ. eigenvalues --   -0.45130  -0.44276  -0.44146  -0.43651  -0.43529
 Alpha  occ. eigenvalues --   -0.43019  -0.42515  -0.41004  -0.40071  -0.39592
 Alpha  occ. eigenvalues --   -0.39462  -0.39223  -0.39079  -0.39048  -0.38039
 Alpha  occ. eigenvalues --   -0.37268  -0.36629  -0.36325  -0.35990  -0.35838
 Alpha  occ. eigenvalues --   -0.35619  -0.35179  -0.35023  -0.34634  -0.33380
 Alpha  occ. eigenvalues --   -0.33302  -0.32649  -0.32592  -0.32579  -0.32322
 Alpha  occ. eigenvalues --   -0.32321  -0.32261  -0.32258  -0.31961  -0.27179
 Alpha  occ. eigenvalues --   -0.27033  -0.27016  -0.26540  -0.26535  -0.26023
 Alpha  occ. eigenvalues --   -0.26022  -0.23516  -0.23205  -0.18069
 Alpha virt. eigenvalues --   -0.03526   0.01371   0.02670   0.02894   0.03572
 Alpha virt. eigenvalues --    0.03663   0.04535   0.04544   0.05100   0.05117
 Alpha virt. eigenvalues --    0.05417   0.05464   0.06393   0.06639   0.06705

 Mulliken charges:
               1
     1  C   -0.231038
     2  C    0.234928
     3  C   -0.092942
     4  C   -0.305682
     5  S    0.316367
     6  O   -0.376650
     7  H    0.103683
     8  C   -0.231034
     9  C    0.234928
    10  C   -0.092943
    11  C   -0.305680
    12  S    0.316366
    13  O   -0.376653
    14  H    0.103682
    15  C   -0.022900
    16  H    0.108091
    17  H    0.108130
    18  C   -0.241301
    19  H    0.132548
    20  H    0.132545
    21  C    0.025084
    22  H    0.086740
    23  H    0.086746
    24  O   -0.381003
    25  C   -0.002642
    26  H    0.094812
    27  H    0.094807
    28  C    0.002131
    29  H    0.097339
    30  H    0.097330
    31  O   -0.390753
    32  C    0.001081
    33  H    0.097498
    34  H    0.097501
    35  C   -0.008074
    36  H    0.093742
    37  H    0.093742
    38  O   -0.370217
    39  C   -0.101875
    40  H    0.088988
    41  H    0.115542
    42  H    0.088989
    43  C   -0.022895
    44  H    0.108105
    45  H    0.108114
    46  C   -0.241301
    47  H    0.132548
    48  H    0.132544
    49  C    0.025084
    50  H    0.086740
    51  H    0.086742
    52  O   -0.381000
    53  C   -0.002643
    54  H    0.094812
    55  H    0.094809
    56  C    0.002130
    57  H    0.097338
    58  H    0.097331
    59  O   -0.390751
    60  C    0.001080
    61  H    0.097498
    62  H    0.097502
    63  C   -0.008074
    64  H    0.093742
    65  H    0.093742
    66  O   -0.370216
    67  C   -0.101876
    68  H    0.088988
    69  H    0.115542
    70  H    0.088989
    71  H    0.126710
    72  H    0.126710
 Sum of Mulliken charges =  -0.00000

 Dipole moment (field-independent basis, Debye):
    X=             -0.0001    Y=              0.0000    Z=              0.0032  Tot=              0.0032
 Quadrupole moment (field-independent basis, Debye-Ang):
   XX=           -168.4676   YY=           -207.6965   ZZ=           -223.7202
   XY=             29.7445   XZ=              0.0136   YZ=             -0.0010

 Normal termination of Gaussian 16 at Tue Mar 31 08:55:24 2020.
