 Gaussian 16, Revision A.03,
 Gaussian 16:  ES64L-G16RevA.03 25-Dec-2016

 ---------------------
 #p opt b3lyp/6-311g**
 ---------------------

 -----
 P.gjf
 -----
 Symbolic Z-matrix:
 Charge =  0 Multiplicity = 1

 SCF Done:  E(RB3LYP) =  -2493.16940438     A.U. after   14 cycles
 SCF Done:  E(RB3LYP) =  -2493.21090533     A.U. after   11 cycles
 SCF Done:  E(RB3LYP) =  -2493.22783638     A.U. after   12 cycles
 SCF Done:  E(RB3LYP) =  -2493.22998131     A.U. after   10 cycles
 SCF Done:  E(RB3LYP) =  -2493.23027823     A.U. after   10 cycles
 SCF Done:  E(RB3LYP) =  -2493.23032052     A.U. after    9 cycles
 SCF Done:  E(RB3LYP) =  -2493.23032653     A.U. after    9 cycles
 SCF Done:  E(RB3LYP) =  -2493.23033184     A.U. after    9 cycles
 SCF Done:  E(RB3LYP) =  -2493.23033481     A.U. after    8 cycles
 SCF Done:  E(RB3LYP) =  -2493.23033578     A.U. after    8 cycles
 SCF Done:  E(RB3LYP) =  -2493.23033708     A.U. after    8 cycles
 SCF Done:  E(RB3LYP) =  -2493.23033841     A.U. after    8 cycles
 SCF Done:  E(RB3LYP) =  -2493.23033878     A.U. after    7 cycles
 SCF Done:  E(RB3LYP) =  -2493.23033889     A.U. after    7 cycles
 SCF Done:  E(RB3LYP) =  -2493.23033892     A.U. after    7 cycles
 SCF Done:  E(RB3LYP) =  -2493.23033894     A.U. after    6 cycles
 Optimization completed.
    -- Stationary point found.

                         Standard orientation:
 ---------------------------------------------------------------------
 Center     Atomic      Atomic             Coordinates (Angstroms)
 Number     Number       Type             X           Y           Z
 ---------------------------------------------------------------------
      1          6           0        0.078707    0.717851   -0.000197
      2          6           0        1.257628    1.448115    0.000111
      3          6           0        1.069209    2.859915    0.000220
      4          6           0       -0.251885    3.202526   -0.000023
      5         16           0       -1.289854    1.822750   -0.000343
      6          8           0        2.454570    0.794986    0.000329
      7          1           0        1.871240    3.583363    0.000456
      8          6           0       -0.078698   -0.717504   -0.000365
      9          6           0       -1.257603   -1.447806   -0.000668
     10          6           0       -1.069131   -2.859601   -0.000786
     11          6           0        0.251977   -3.202162   -0.000575
     12         16           0        1.289889   -1.822355   -0.000212
     13          8           0       -2.454569   -0.794735   -0.000905
     14          1           0       -1.871130   -3.583085   -0.001041
     15          6           0        3.652008    1.574608    0.000077
     16          1           0        3.673709    2.218128    0.889132
     17          1           0        3.673454    2.217912   -0.889138
     18          6           0        4.834022    0.618721    0.000045
     19          1           0        4.759577   -0.029523    0.878947
     20          1           0        4.759271   -0.029841   -0.878596
     21          6           0        6.179404    1.353185   -0.000327
     22          1           0        6.237091    2.008771   -0.878576
     23          1           0        6.237025    2.009791    0.877173
     24          6           0        7.377001    0.397370    0.000281
     25          1           0        7.337301   -0.255824   -0.877725
     26          1           0        7.337310   -0.254625    0.879172
     27          6           0        8.713421    1.124311   -0.000274
     28          1           0        8.800073    1.771066   -0.888041
     29          1           0        8.800278    1.772134    0.886694
     30          8           0        9.752210    0.159362    0.000193
     31          6           0       11.048463    0.725561   -0.000169
     32          1           0       11.206078    1.353465   -0.889151
     33          1           0       11.206130    1.354466    0.888096
     34          6           0       12.048243   -0.417477    0.000431
     35          1           0       11.892349   -1.046101   -0.887760
     36          1           0       11.892524   -1.045033    0.889407
     37          8           0       13.345208    0.149421   -0.000032
     38          6           0       14.381406   -0.815155    0.000522
     39          1           0       14.320215   -1.459803   -0.887706
     40          1           0       14.320330   -1.458658    0.889587
     41          6           0       15.703584   -0.068610   -0.000045
     42          1           0       15.763401    0.577484    0.888338
     43          1           0       15.763291    0.576332   -0.889272
     44          8           0       16.737774   -1.032598    0.000515
     45          6           0       18.027625   -0.456893    0.000039
     46          1           0       18.193527    0.164782    0.891806
     47          1           0       18.747220   -1.276089    0.000525
     48          1           0       18.193393    0.163606   -0.892570
     49          6           0       -3.651967   -1.574423   -0.000329
     50          1           0       -3.673164   -2.217690    0.888918
     51          1           0       -3.673834   -2.217978   -0.889354
     52          6           0       -4.834021   -0.618589   -0.000065
     53          1           0       -4.759065    0.030037    0.878511
     54          1           0       -4.759834    0.029597   -0.879033
     55          6           0       -6.179370   -1.353122    0.000715
     56          1           0       -6.236883   -2.008430    0.879187
     57          1           0       -6.237069   -2.010010   -0.876565
     58          6           0       -7.377002   -0.397371   -0.000033
     59          1           0       -7.337586    0.254239   -0.879227
     60          1           0       -7.337103    0.256226    0.877663
     61          6           0       -8.713388   -1.124374    0.001132
     62          1           0       -8.800263   -1.772810   -0.885386
     63          1           0       -8.799972   -1.770522    0.889347
     64          8           0       -9.752219   -0.159472    0.000064
     65          6           0      -11.048450   -0.725726    0.000894
     66          1           0      -11.206176   -1.355176   -0.886974
     67          1           0      -11.205949   -1.353100    0.890270
     68          6           0      -12.048294    0.417260   -0.000316
     69          1           0      -11.892600    1.044341   -0.889632
     70          1           0      -11.892432    1.046375    0.887533
     71          8           0      -13.345238   -0.149692    0.000457
     72          6           0      -14.381485    0.814834   -0.000525
     73          1           0      -14.320472    1.457911   -0.889903
     74          1           0      -14.320290    1.459915    0.887388
     75          6           0      -15.703632    0.068233    0.000450
     76          1           0      -15.763280   -0.576280    0.889992
     77          1           0      -15.763450   -0.578296   -0.887618
     78          8           0      -16.737869    1.032171   -0.000544
     79          6           0      -18.027693    0.456407    0.000236
     80          1           0      -18.193413   -0.163673    0.893146
     81          1           0      -18.747326    1.275570   -0.000625
     82          1           0      -18.193587   -0.165701   -0.891229
     83          1           0       -0.679006    4.193228   -0.000022
     84          1           0        0.679124   -4.192855   -0.000606
 ---------------------------------------------------------------------

 The electronic state is 1-A.
 Alpha  occ. eigenvalues --  -88.86619 -88.86618 -19.14960 -19.14960 -19.12405
 Alpha  occ. eigenvalues --  -19.12405 -19.12221 -19.12221 -19.12152 -19.12152
 Alpha  occ. eigenvalues --  -10.22952 -10.22952 -10.22725 -10.22725 -10.21856
 Alpha  occ. eigenvalues --  -10.21856 -10.21649 -10.21649 -10.21614 -10.21614
 Alpha  occ. eigenvalues --  -10.21608 -10.21608 -10.21541 -10.21541 -10.21336
 Alpha  occ. eigenvalues --  -10.21336 -10.19876 -10.19840 -10.19048 -10.19047
 Alpha  occ. eigenvalues --  -10.17811 -10.17811 -10.17386 -10.17386 -10.17178
 Alpha  occ. eigenvalues --  -10.17177 -10.17048 -10.17048  -7.95199  -7.95199
 Alpha  occ. eigenvalues --   -5.91509  -5.91509  -5.91122  -5.91121  -5.90773
 Alpha  occ. eigenvalues --   -5.90773  -1.06748  -1.06675  -1.04649  -1.04649
 Alpha  occ. eigenvalues --   -1.03907  -1.03907  -1.03332  -1.03331  -0.88416
 Alpha  occ. eigenvalues --   -0.86644  -0.81829  -0.81779  -0.78699  -0.78676
 Alpha  occ. eigenvalues --   -0.77031  -0.76787  -0.75818  -0.73765  -0.73393
 Alpha  occ. eigenvalues --   -0.71994  -0.71435  -0.70151  -0.68084  -0.67424
 Alpha  occ. eigenvalues --   -0.65974  -0.65639  -0.61856  -0.61600  -0.61023
 Alpha  occ. eigenvalues --   -0.61022  -0.60679  -0.60593  -0.59596  -0.59370
 Alpha  occ. eigenvalues --   -0.58930  -0.56851  -0.54983  -0.54752  -0.53031
 Alpha  occ. eigenvalues --   -0.51649  -0.51641  -0.51047  -0.51044  -0.50294
 Alpha  occ. eigenvalues --   -0.50270  -0.49102  -0.49076  -0.48723  -0.48709
 Alpha  occ. eigenvalues --   -0.47986  -0.47307  -0.47282  -0.47170  -0.47128
 Alpha  occ. eigenvalues --   -0.46302  -0.45582  -0.45125  -0.44940  -0.44667
 Alpha  occ. eigenvalues --   -0.44654  -0.44587  -0.44582  -0.43243  -0.42896
 Alpha  occ. eigenvalues --   -0.42885  -0.42661  -0.41130  -0.40762  -0.40572
 Alpha  occ. eigenvalues --   -0.39736  -0.39704  -0.39590  -0.38981  -0.37915
 Alpha  occ. eigenvalues --   -0.37886  -0.37399  -0.37023  -0.36657  -0.36316
 Alpha  occ. eigenvalues --   -0.35966  -0.35949  -0.35391  -0.35312  -0.35227
 Alpha  occ. eigenvalues --   -0.34849  -0.34513  -0.33848  -0.33712  -0.33701
 Alpha  occ. eigenvalues --   -0.32981  -0.32759  -0.32455  -0.32306  -0.32246
 Alpha  occ. eigenvalues --   -0.32246  -0.32223  -0.32106  -0.31856  -0.31755
 Alpha  occ. eigenvalues --   -0.27046  -0.26830  -0.26830  -0.26320  -0.26320
 Alpha  occ. eigenvalues --   -0.25891  -0.25891  -0.23403  -0.23083  -0.17933
 Alpha virt. eigenvalues --   -0.03416   0.01474   0.02759   0.02935   0.03574
 Alpha virt. eigenvalues --    0.03661   0.04523   0.04532   0.04970   0.04998
 Alpha virt. eigenvalues --    0.05238   0.05247   0.05580   0.06002   0.06014

 Mulliken charges:
               1
     1  C   -0.232146
     2  C    0.237259
     3  C   -0.093068
     4  C   -0.306278
     5  S    0.313283
     6  O   -0.378311
     7  H    0.103896
     8  C   -0.232166
     9  C    0.237260
    10  C   -0.093076
    11  C   -0.306281
    12  S    0.313301
    13  O   -0.378302
    14  H    0.103896
    15  C   -0.009541
    16  H    0.107104
    17  H    0.107108
    18  C   -0.218245
    19  H    0.124462
    20  H    0.124475
    21  C   -0.235276
    22  H    0.105800
    23  H    0.105785
    24  C   -0.223859
    25  H    0.116002
    26  H    0.116002
    27  C    0.035305
    28  H    0.085913
    29  H    0.085911
    30  O   -0.383821
    31  C   -0.000061
    32  H    0.093299
    33  H    0.093298
    34  C    0.002125
    35  H    0.096284
    36  H    0.096281
    37  O   -0.390586
    38  C    0.001485
    39  H    0.096988
    40  H    0.096988
    41  C   -0.008184
    42  H    0.093687
    43  H    0.093688
    44  O   -0.370263
    45  C   -0.101782
    46  H    0.088859
    47  H    0.115348
    48  H    0.088860
    49  C   -0.009546
    50  H    0.107109
    51  H    0.107106
    52  C   -0.218243
    53  H    0.124478
    54  H    0.124459
    55  C   -0.235276
    56  H    0.105802
    57  H    0.105784
    58  C   -0.223858
    59  H    0.116006
    60  H    0.115998
    61  C    0.035305
    62  H    0.085906
    63  H    0.085919
    64  O   -0.383822
    65  C   -0.000061
    66  H    0.093300
    67  H    0.093297
    68  C    0.002126
    69  H    0.096283
    70  H    0.096282
    71  O   -0.390589
    72  C    0.001486
    73  H    0.096988
    74  H    0.096988
    75  C   -0.008184
    76  H    0.093687
    77  H    0.093687
    78  O   -0.370263
    79  C   -0.101781
    80  H    0.088859
    81  H    0.115348
    82  H    0.088859
    83  H    0.125927
    84  H    0.125924
 Sum of Mulliken charges =  -0.00000

 Dipole moment (field-independent basis, Debye):
    X=              0.0002    Y=             -0.0000    Z=              0.0012  Tot=              0.0012
 Quadrupole moment (field-independent basis, Debye-Ang):
   XX=           -196.1763   YY=           -235.9233   ZZ=           -250.1199
   XY=             35.9245   XZ=             -0.0274   YZ=              0.0055

 Normal termination of Gaussian 16 at Tue Mar 31 10:01:26 2020.
