 Gaussian 16, Revision A.03,
 Gaussian 16:  ES64L-G16RevA.03 25-Dec-2016

 --------------------------
 #p pop=MKUFF b3lyp/lanl2dz
 --------------------------

 ----------------
 CSD ENTRY IM1704
 ----------------
 Symbolic Z-matrix:
 Charge =  0 Multiplicity = 1

                         Standard orientation:
 ---------------------------------------------------------------------
 Center     Atomic      Atomic             Coordinates (Angstroms)
 Number     Number       Type             X           Y           Z
 ---------------------------------------------------------------------
      1          6           0        5.375559   -1.406155    0.107348
      2          6           0        5.740207   -1.822665    1.384709
      3          6           0        4.891106   -2.804961    1.941236
      4          6           0        3.864801   -3.162073    1.119306
      5         16           0        3.918728   -2.259001   -0.346078
      6          8           0        6.845722   -1.269854    1.959197
      7          1           0        5.023233   -3.171687    2.810117
      8         50           0        2.293262   -4.577986    1.455245
      9          6           0        0.727807   -3.996278    0.123379
     10          1           0        1.111845   -3.715788   -0.730108
     11          1           0        0.123804   -4.758920   -0.019650
     12          1           0        0.221325   -3.262984    0.523823
     13          6           0        2.952471   -6.579065    1.024867
     14          1           0        3.719672   -6.797245    1.595393
     15          1           0        2.216467   -7.207818    1.192400
     16          1           0        3.220824   -6.635437    0.084543
     17          6           0        1.720542   -4.417084    3.501071
     18          1           0        2.058599   -3.573180    3.876629
     19          1           0        0.738755   -4.428623    3.564013
     20          1           0        2.089865   -5.171605    4.001369
     21          6           0        6.036949   -0.465381   -0.747408
     22          6           0        5.670896   -0.048564   -2.014873
     23          6           0        6.514096    0.926649   -2.582124
     24          6           0        7.554388    1.283190   -1.758189
     25         16           0        7.486474    0.380689   -0.294810
     26          8           0        4.566161   -0.615806   -2.598908
     27          1           0        6.389275    1.300152   -3.450177
     28         50           0        9.111940    2.699674   -2.096133
     29          6           0       10.684702    2.124743   -0.763439
     30          1           0       10.300664    1.844252    0.090048
     31          1           0       11.281398    2.880609   -0.621238
     32          1           0       11.189151    1.377632   -1.153638
     33          6           0        8.458005    4.693713   -1.654682
     34          1           0        7.692837    4.925710   -2.235453
     35          1           0        9.188735    5.329506   -1.833288
     36          1           0        8.189652    4.750085   -0.714358
     37          6           0        9.691967    2.545548   -4.141130
     38          1           0        9.352504    1.701951   -4.506792
     39          1           0       10.666447    2.550312   -4.204901
     40          1           0        9.322644    3.300069   -4.641429
     41          6           0        7.303302   -1.868771    3.184684
     42          1           0        6.635681   -1.722522    3.893693
     43          1           0        7.424485   -2.840125    3.060234
     44          6           0        8.592729   -1.223082    3.550007
     45          1           0        8.910134   -1.583719    4.424819
     46          1           0        8.467678   -0.244995    3.653488
     47          8           0        9.554149   -1.488600    2.552975
     48          6           0       10.811765   -0.900455    2.824615
     49          1           0       10.688354   -0.000847    3.193499
     50          1           0       11.301959   -1.451000    3.487344
     51          6           0       11.598169   -0.825228    1.549622
     52          1           0       12.382744   -0.226598    1.682976
     53          1           0       11.037551   -0.442850    0.831573
     54          8           0       12.048805   -2.121725    1.178914
     55          6           0       12.377155   -2.233969   -0.195781
     56          1           0       12.457077   -3.191983   -0.427561
     57          1           0       11.631888   -1.867116   -0.727379
     58          6           0       13.638903   -1.550008   -0.623786
     59          1           0       13.909769   -1.895549   -1.514366
     60          1           0       14.353518   -1.749897    0.019542
     61          8           0       13.434533   -0.155014   -0.696082
     62          6           0       14.543273    0.518298   -1.256657
     63          1           0       15.341613    0.304176   -0.752568
     64          1           0       14.651607    0.235489   -2.192490
     65          1           0       14.378796    1.489173   -1.229292
     66          6           0        4.115888   -0.010111   -3.823567
     67          1           0        4.776828   -0.149013   -4.533753
     68          1           0        3.988024    0.968589   -3.700294
     69          6           0        2.819780   -0.648453   -4.190067
     70          1           0        2.500968   -0.287509   -5.054983
     71          1           0        2.943424   -1.626233   -4.283652
     72          8           0        1.851053   -0.389712   -3.193863
     73          6           0        0.599338   -0.970773   -3.454779
     74          1           0        0.716848   -1.877465   -3.834387
     75          1           0        0.103243   -0.427312   -4.128232
     76          6           0       -0.192967   -1.053084   -2.190510
     77          1           0       -0.964961   -1.651978   -2.311963
     78          1           0        0.374958   -1.428685   -1.471632
     79          8           0       -0.629616    0.242842   -1.817797
     80          6           0       -0.966052    0.362740   -0.434383
     81          1           0       -1.044568    1.320448   -0.212499
     82          1           0       -0.214105   -0.011460    0.098392
     83          6           0       -2.226394   -0.321528   -0.016274
     84          1           0       -2.504567    0.017237    0.873478
     85          1           0       -2.941009   -0.121639   -0.659602
     86          8           0       -2.029331   -1.723297    0.055194
     87          6           0       -3.124084   -2.397181    0.617775
     88          1           0       -3.936411   -2.182488    0.111680
     89          1           0       -3.246405   -2.113801    1.551602
     90          1           0       -2.973594   -3.367485    0.588404
     91          6           0       -6.140911    0.690109   -0.199719
     92          6           0       -6.374812    1.243027   -1.452624
     93          6           0       -7.331171    0.537395   -2.213387
     94          6           0       -7.853954   -0.542118   -1.567052
     95         16           0       -7.140017   -0.719530   -0.015047
     96          8           0       -5.676120    2.349896   -1.822178
     97          1           0       -7.587518    0.788920   -3.096349
     98         50           0       -9.328815   -1.937896   -2.248732
     99          6           0       -9.026068   -3.692252   -1.070054
    100          1           0       -8.812963   -3.430883   -0.138404
    101          1           0       -9.833727   -4.237174   -1.076987
    102          1           0       -8.273180   -4.208961   -1.432092
    103          6           0      -11.311222   -1.177494   -1.967923
    104          1           0      -11.413484   -0.342649   -2.463076
    105          1           0      -11.963551   -1.836283   -2.292829
    106          1           0      -11.462662   -1.012698   -1.014347
    107          6           0       -8.952605   -2.296196   -4.326468
    108          1           0       -8.056556   -1.980435   -4.552500
    109          1           0       -9.029710   -3.253130   -4.509859
    110          1           0       -9.614209   -1.812736   -4.859898
    111          6           0       -5.268607    1.186838    0.838523
    112          6           0       -5.034706    0.633919    2.091428
    113          6           0       -4.078347    1.339551    2.852191
    114          6           0       -3.555564    2.419065    2.205856
    115         16           0       -4.269500    2.596477    0.653851
    116          8           0       -5.733398   -0.472950    2.460982
    117          1           0       -3.822000    1.088026    3.735152
    118         50           0       -2.080702    3.814843    2.887536
    119          6           0       -2.383449    5.569198    1.708858
    120          1           0       -2.596554    5.307830    0.777207
    121          1           0       -1.575791    6.114121    1.715791
    122          1           0       -3.136337    6.085908    2.070896
    123          6           0       -0.098296    3.054441    2.606727
    124          1           0        0.003966    2.219596    3.101880
    125          1           0        0.554033    3.713230    2.931633
    126          1           0        0.053144    2.889644    1.653151
    127          6           0       -2.456913    4.173143    4.965272
    128          1           0       -3.352962    3.857381    5.191304
    129          1           0       -2.379808    5.130077    5.148663
    130          1           0       -1.795309    3.689683    5.498701
    131          6           0       -6.089857    2.989474   -3.042695
    132          1           0       -5.910400    2.388890   -3.817095
    133          1           0       -7.065962    3.167972   -3.015154
    134          6           0       -5.323980    4.261808   -3.185517
    135          1           0       -5.555733    4.689946   -4.040144
    136          1           0       -4.360028    4.063329   -3.183850
    137          8           0       -5.635701    5.116313   -2.114420
    138          6           0       -4.943123    6.351934   -2.155362
    139          1           0       -4.007853    6.190090   -2.441853
    140          1           0       -5.368181    6.949343   -2.810288
    141          6           0       -4.962917    6.974119   -0.793050
    142          1           0       -4.300702    7.717243   -0.762406
    143          1           0       -4.709193    6.307127   -0.109789
    144          8           0       -6.259761    7.484231   -0.528319
    145          6           0       -6.516446    7.664547    0.864555
    146          1           0       -7.500406    7.796088    0.983383
    147          1           0       -6.275364    6.830114    1.339002
    148          6           0       -5.812607    8.803474    1.515367
    149          1           0       -6.242195    9.013749    2.377480
    150          1           0       -5.882171    9.613515    0.934683
    151          8           0       -4.446420    8.485950    1.719359
    152          6           0       -3.772248    9.466112    2.482035
    153          1           0       -3.875794   10.338129    2.056283
    154          1           0       -4.158248    9.491413    3.386393
    155          1           0       -2.825294    9.234450    2.542946
    156          6           0       -5.319660   -1.112527    3.681499
    157          1           0       -5.499117   -0.511943    4.455898
    158          1           0       -4.343556   -1.291025    3.653958
    159          6           0       -6.085538   -2.384861    3.824321
    160          1           0       -5.853784   -2.812999    4.678948
    161          1           0       -7.049490   -2.186382    3.822654
    162          8           0       -5.773816   -3.239366    2.753223
    163          6           0       -6.466395   -4.474987    2.794166
    164          1           0       -7.401664   -4.313144    3.080657
    165          1           0       -6.041337   -5.072397    3.449091
    166          6           0       -6.446601   -5.097173    1.431854
    167          1           0       -7.108815   -5.840296    1.401209
    168          1           0       -6.700324   -4.430181    0.748592
    169          8           0       -5.149757   -5.607284    1.167123
    170          6           0       -4.893071   -5.787601   -0.225752
    171          1           0       -3.909111   -5.919141   -0.344580
    172          1           0       -5.134154   -4.953167   -0.700198
    173          6           0       -5.596911   -6.926527   -0.876563
    174          1           0       -5.167323   -7.136802   -1.738676
    175          1           0       -5.527347   -7.736569   -0.295879
    176          8           0       -6.963097   -6.609003   -1.080555
    177          6           0       -7.637270   -7.589165   -1.843231
    178          1           0       -7.533723   -8.461183   -1.417480
    179          1           0       -7.251269   -7.614466   -2.747589
    180          1           0       -8.584224   -7.357503   -1.904143
 ---------------------------------------------------------------------

 SCF Done:  E(RB3LYP) =  -3449.83043511     A.U. after   15 cycles

 The electronic state is 1-A.
 Alpha  occ. eigenvalues --  -19.14937 -19.14525 -19.13847 -19.13695 -19.12812
 Alpha  occ. eigenvalues --  -19.12410 -19.12274 -19.11408 -19.11394 -19.10691
 Alpha  occ. eigenvalues --  -19.10499 -19.10481 -19.10434 -19.09766 -19.09334
 Alpha  occ. eigenvalues --  -19.08855 -10.23159 -10.23068 -10.22262 -10.22241
 Alpha  occ. eigenvalues --  -10.22196 -10.21628 -10.21145 -10.21118 -10.20985
 Alpha  occ. eigenvalues --  -10.20934 -10.20566 -10.20431 -10.20374 -10.20341
 Alpha  occ. eigenvalues --  -10.20265 -10.20045 -10.19954 -10.19925 -10.19890
 Alpha  occ. eigenvalues --  -10.19700 -10.19587 -10.19580 -10.19556 -10.19498
 Alpha  occ. eigenvalues --  -10.19280 -10.19191 -10.19158 -10.18845 -10.18760
 Alpha  occ. eigenvalues --  -10.18463 -10.18422 -10.18377 -10.17612 -10.17287
 Alpha  occ. eigenvalues --  -10.17264 -10.17214 -10.16998 -10.16578 -10.16521
 Alpha  occ. eigenvalues --  -10.16391 -10.16378 -10.15788 -10.15740 -10.15571
 Alpha  occ. eigenvalues --  -10.12080 -10.12052 -10.11876 -10.11670 -10.11657
 Alpha  occ. eigenvalues --  -10.11563 -10.11366 -10.11305 -10.11282 -10.10968
 Alpha  occ. eigenvalues --  -10.10660 -10.10080  -1.06419  -1.05950  -1.05266
 Alpha  occ. eigenvalues --   -1.04817  -1.04521  -1.04127  -1.04080  -1.03474
 Alpha  occ. eigenvalues --   -1.02686  -1.02522  -1.02003  -1.01638  -1.01210
 Alpha  occ. eigenvalues --   -1.00936  -1.00885  -0.99108  -0.88775  -0.87778
 Alpha  occ. eigenvalues --   -0.87187  -0.86107  -0.80508  -0.79867  -0.79647
 Alpha  occ. eigenvalues --   -0.78895  -0.78552  -0.78055  -0.77793  -0.75946
 Alpha  occ. eigenvalues --   -0.75650  -0.74792  -0.74635  -0.74019  -0.73847
 Alpha  occ. eigenvalues --   -0.72465  -0.72298  -0.71742  -0.71484  -0.71312
 Alpha  occ. eigenvalues --   -0.71220  -0.71017  -0.70803  -0.70437  -0.70283
 Alpha  occ. eigenvalues --   -0.70204  -0.69959  -0.69895  -0.69773  -0.69680
 Alpha  occ. eigenvalues --   -0.69634  -0.69351  -0.69268  -0.69164  -0.68551
 Alpha  occ. eigenvalues --   -0.68278  -0.67637  -0.66772  -0.65003  -0.64324
 Alpha  occ. eigenvalues --   -0.64185  -0.63753  -0.63359  -0.63145  -0.62898
 Alpha  occ. eigenvalues --   -0.61605  -0.61367  -0.60945  -0.60817  -0.59131
 Alpha  occ. eigenvalues --   -0.57737  -0.56975  -0.56409  -0.55578  -0.55071
 Alpha  occ. eigenvalues --   -0.54369  -0.54071  -0.53608  -0.53511  -0.52766
 Alpha  occ. eigenvalues --   -0.52544  -0.51938  -0.51821  -0.51772  -0.51371
 Alpha  occ. eigenvalues --   -0.51286  -0.51197  -0.51073  -0.50739  -0.50649
 Alpha  occ. eigenvalues --   -0.49593  -0.49437  -0.49052  -0.48947  -0.48647
 Alpha  occ. eigenvalues --   -0.48291  -0.48040  -0.47973  -0.47960  -0.47477
 Alpha  occ. eigenvalues --   -0.47275  -0.46880  -0.46654  -0.46454  -0.46370
 Alpha  occ. eigenvalues --   -0.46211  -0.45938  -0.45861  -0.45675  -0.45275
 Alpha  occ. eigenvalues --   -0.45058  -0.44767  -0.44523  -0.44414  -0.44177
 Alpha  occ. eigenvalues --   -0.44046  -0.43913  -0.43571  -0.43449  -0.43278
 Alpha  occ. eigenvalues --   -0.42986  -0.42858  -0.42432  -0.42202  -0.42149
 Alpha  occ. eigenvalues --   -0.42090  -0.41973  -0.41871  -0.41775  -0.41696
 Alpha  occ. eigenvalues --   -0.41650  -0.41526  -0.41509  -0.41363  -0.41348
 Alpha  occ. eigenvalues --   -0.41175  -0.41143  -0.41058  -0.40990  -0.40965
 Alpha  occ. eigenvalues --   -0.40847  -0.40821  -0.40752  -0.40664  -0.40561
 Alpha  occ. eigenvalues --   -0.40541  -0.40430  -0.40417  -0.40305  -0.40195
 Alpha  occ. eigenvalues --   -0.40130  -0.40090  -0.40023  -0.39900  -0.39864
 Alpha  occ. eigenvalues --   -0.39706  -0.39657  -0.39607  -0.39432  -0.39338
 Alpha  occ. eigenvalues --   -0.39070  -0.38892  -0.38667  -0.38489  -0.38384
 Alpha  occ. eigenvalues --   -0.38302  -0.38102  -0.38024  -0.37604  -0.37052
 Alpha  occ. eigenvalues --   -0.36790  -0.36457  -0.36258  -0.36183  -0.35915
 Alpha  occ. eigenvalues --   -0.35270  -0.34165  -0.33432  -0.33242  -0.32466
 Alpha  occ. eigenvalues --   -0.31826  -0.31671  -0.31570  -0.31238  -0.31141
 Alpha  occ. eigenvalues --   -0.30959  -0.30840  -0.30670  -0.30057  -0.30037
 Alpha  occ. eigenvalues --   -0.29975  -0.29186  -0.29133  -0.29127  -0.29014
 Alpha  occ. eigenvalues --   -0.28363  -0.28352  -0.28183  -0.28117  -0.27831
 Alpha  occ. eigenvalues --   -0.27544  -0.27422  -0.27168  -0.26883  -0.26880
 Alpha  occ. eigenvalues --   -0.26706  -0.26701  -0.26495  -0.26390  -0.26345
 Alpha  occ. eigenvalues --   -0.26060  -0.25584  -0.25411  -0.25136  -0.24990
 Alpha  occ. eigenvalues --   -0.24919  -0.24664  -0.24299  -0.23863  -0.23688
 Alpha  occ. eigenvalues --   -0.23179  -0.22762  -0.22417  -0.22226  -0.22217
 Alpha  occ. eigenvalues --   -0.21850  -0.21472  -0.21134  -0.20818  -0.20582
 Alpha  occ. eigenvalues --   -0.16374  -0.15459
 Alpha virt. eigenvalues --   -0.02109  -0.01322   0.02726   0.03532   0.05080
 Alpha virt. eigenvalues --    0.05743   0.06055   0.06234   0.06456   0.06585
 Alpha virt. eigenvalues --    0.06621   0.06940   0.06976   0.07091   0.07405

 Mulliken charges:
               1
     1  C   -0.276709
     2  C    0.312980
     3  C   -0.296497
     4  C   -0.597083
     5  S    0.320094
     6  O   -0.298917
     7  H    0.314136
     8  Sn   1.184642
     9  C   -1.082404
    10  H    0.267254
    11  H    0.245615
    12  H    0.302015
    13  C   -1.077551
    14  H    0.263881
    15  H    0.259318
    16  H    0.269701
    17  C   -1.096997
    18  H    0.271382
    19  H    0.269426
    20  H    0.261441
    21  C   -0.266760
    22  C    0.320296
    23  C   -0.297460
    24  C   -0.603206
    25  S    0.319036
    26  O   -0.302014
    27  H    0.313869
    28  Sn   1.184996
    29  C   -1.090510
    30  H    0.269065
    31  H    0.250537
    32  H    0.292074
    33  C   -1.073813
    34  H    0.262176
    35  H    0.258325
    36  H    0.270815
    37  C   -1.099335
    38  H    0.274192
    39  H    0.267494
    40  H    0.262613
    41  C   -0.292768
    42  H    0.211062
    43  H    0.243730
    44  C   -0.274089
    45  H    0.192173
    46  H    0.222040
    47  O   -0.289417
    48  C   -0.276097
    49  H    0.189294
    50  H    0.227370
    51  C   -0.235077
    52  H    0.204182
    53  H    0.230880
    54  O   -0.308651
    55  C   -0.314762
    56  H    0.237157
    57  H    0.218729
    58  C   -0.271441
    59  H    0.199693
    60  H    0.231094
    61  O   -0.329133
    62  C   -0.526792
    63  H    0.225263
    64  H    0.218340
    65  H    0.253470
    66  C   -0.293229
    67  H    0.212427
    68  H    0.238751
    69  C   -0.272148
    70  H    0.194740
    71  H    0.220788
    72  O   -0.288522
    73  C   -0.277805
    74  H    0.180975
    75  H    0.221467
    76  C   -0.233948
    77  H    0.211715
    78  H    0.223152
    79  O   -0.315804
    80  C   -0.315567
    81  H    0.233441
    82  H    0.205061
    83  C   -0.255675
    84  H    0.221797
    85  H    0.243367
    86  O   -0.342975
    87  C   -0.513149
    88  H    0.228593
    89  H    0.224047
    90  H    0.246135
    91  C   -0.303258
    92  C    0.324042
    93  C   -0.296163
    94  C   -0.596198
    95  S    0.314076
    96  O   -0.295174
    97  H    0.314342
    98  Sn   1.183415
    99  C   -1.087430
   100  H    0.262655
   101  H    0.252547
   102  H    0.293158
   103  C   -1.076756
   104  H    0.268493
   105  H    0.260635
   106  H    0.271068
   107  C   -1.097077
   108  H    0.275307
   109  H    0.266746
   110  H    0.263165
   111  C   -0.286031
   112  C    0.311989
   113  C   -0.302502
   114  C   -0.616314
   115  S    0.340127
   116  O   -0.301347
   117  H    0.318900
   118  Sn   1.185059
   119  C   -1.084930
   120  H    0.264434
   121  H    0.253830
   122  H    0.292153
   123  C   -1.071965
   124  H    0.266061
   125  H    0.263435
   126  H    0.275611
   127  C   -1.098251
   128  H    0.273389
   129  H    0.267303
   130  H    0.263256
   131  C   -0.290700
   132  H    0.208336
   133  H    0.240821
   134  C   -0.278067
   135  H    0.197844
   136  H    0.229662
   137  O   -0.293194
   138  C   -0.274836
   139  H    0.185947
   140  H    0.232278
   141  C   -0.235952
   142  H    0.205941
   143  H    0.229594
   144  O   -0.309103
   145  C   -0.311667
   146  H    0.232706
   147  H    0.218367
   148  C   -0.264880
   149  H    0.205769
   150  H    0.224199
   151  O   -0.331638
   152  C   -0.526544
   153  H    0.222010
   154  H    0.218111
   155  H    0.257665
   156  C   -0.301665
   157  H    0.215722
   158  H    0.232255
   159  C   -0.272534
   160  H    0.201421
   161  H    0.225410
   162  O   -0.298376
   163  C   -0.271428
   164  H    0.186052
   165  H    0.234296
   166  C   -0.239477
   167  H    0.210978
   168  H    0.228850
   169  O   -0.314123
   170  C   -0.307020
   171  H    0.233099
   172  H    0.216998
   173  C   -0.269802
   174  H    0.208135
   175  H    0.224230
   176  O   -0.332193
   177  C   -0.526544
   178  H    0.222348
   179  H    0.219396
   180  H    0.257503
 Sum of Mulliken charges =  -0.00000

 Dipole moment (field-independent basis, Debye):
    X=             -0.9417    Y=              0.2724    Z=              0.1105  Tot=              0.9865
 Quadrupole moment (field-independent basis, Debye-Ang):
   XX=           -452.5329   YY=           -463.7999   ZZ=           -461.0877
   XY=             52.0143   XZ=            -13.1179   YZ=             22.7759

 ESP charges:
               1
     1  C   -0.182560
     2  C    0.618373
     3  C   -0.494961
     4  C   -0.308831
     5  S   -0.005621
     6  O   -0.446107
     7  H    0.229682
     8  Sn   1.149959
     9  C   -0.836549
    10  H    0.190949
    11  H    0.192661
    12  H    0.162244
    13  C   -0.959757
    14  H    0.221070
    15  H    0.217793
    16  H    0.223686
    17  C   -0.794038
    18  H    0.176837
    19  H    0.182663
    20  H    0.174028
    21  C   -0.088661
    22  C    0.558426
    23  C   -0.463819
    24  C   -0.318850
    25  S   -0.020409
    26  O   -0.437547
    27  H    0.219802
    28  Sn   1.149295
    29  C   -0.776847
    30  H    0.183287
    31  H    0.168645
    32  H    0.129412
    33  C   -0.952528
    34  H    0.217741
    35  H    0.215326
    36  H    0.223261
    37  C   -0.825807
    38  H    0.184853
    39  H    0.187901
    40  H    0.185045
    41  C   -0.076800
    42  H    0.100632
    43  H    0.128381
    44  C    0.212993
    45  H    0.026306
    46  H    0.066592
    47  O   -0.430379
    48  C   -0.013053
    49  H    0.053196
    50  H    0.117084
    51  C    0.283386
    52  H   -0.004462
    53  H    0.064477
    54  O   -0.592819
    55  C    0.187741
    56  H    0.066660
    57  H    0.051594
    58  C   -0.051324
    59  H    0.065779
    60  H    0.124956
    61  O   -0.219667
    62  C   -0.381263
    63  H    0.158495
    64  H    0.161985
    65  H    0.172027
    66  C   -0.053632
    67  H    0.103381
    68  H    0.124752
    69  C    0.133060
    70  H    0.048668
    71  H    0.088606
    72  O   -0.415805
    73  C   -0.015606
    74  H    0.048434
    75  H    0.106364
    76  C    0.323306
    77  H   -0.018176
    78  H    0.074578
    79  O   -0.582001
    80  C    0.009320
    81  H    0.096001
    82  H    0.083289
    83  C    0.242440
    84  H   -0.004490
    85  H    0.068389
    86  O   -0.364184
    87  C   -0.295302
    88  H    0.172433
    89  H    0.149886
    90  H    0.148119
    91  C   -0.206801
    92  C    0.657578
    93  C   -0.519952
    94  C   -0.292240
    95  S   -0.031207
    96  O   -0.484540
    97  H    0.233024
    98  Sn   1.170418
    99  C   -0.855634
   100  H    0.203117
   101  H    0.189772
   102  H    0.151102
   103  C   -0.916988
   104  H    0.209921
   105  H    0.207124
   106  H    0.213723
   107  C   -0.868937
   108  H    0.200768
   109  H    0.201195
   110  H    0.193115
   111  C   -0.065984
   112  C    0.430963
   113  C   -0.340953
   114  C   -0.408004
   115  S    0.034978
   116  O   -0.379476
   117  H    0.189783
   118  Sn   1.179381
   119  C   -0.771481
   120  H    0.179158
   121  H    0.169244
   122  H    0.126280
   123  C   -1.010731
   124  H    0.232425
   125  H    0.234959
   126  H    0.251236
   127  C   -0.857819
   128  H    0.192724
   129  H    0.196173
   130  H    0.194855
   131  C    0.013213
   132  H    0.084064
   133  H    0.105631
   134  C    0.152381
   135  H    0.036467
   136  H    0.081803
   137  O   -0.439040
   138  C    0.077534
   139  H    0.039139
   140  H    0.101927
   141  C    0.151946
   142  H    0.024100
   143  H    0.099377
   144  O   -0.547228
   145  C    0.099665
   146  H    0.093949
   147  H    0.070901
   148  C   -0.056650
   149  H    0.073759
   150  H    0.131049
   151  O   -0.196780
   152  C   -0.376263
   153  H    0.151109
   154  H    0.159604
   155  H    0.171242
   156  C    0.009093
   157  H    0.088367
   158  H    0.105349
   159  C    0.040024
   160  H    0.077303
   161  H    0.104368
   162  O   -0.393964
   163  C   -0.056969
   164  H    0.072162
   165  H    0.130124
   166  C    0.307730
   167  H   -0.010811
   168  H    0.049350
   169  O   -0.578202
   170  C    0.106828
   171  H    0.100165
   172  H    0.046883
   173  C   -0.018496
   174  H    0.063463
   175  H    0.113212
   176  O   -0.172391
   177  C   -0.443505
   178  H    0.167837
   179  H    0.176207
   180  H    0.186308
 Sum of ESP charges =  -0.00000

 Normal termination of Gaussian 16 at Tue Feb 11 15:09:09 2020.
