 Gaussian 16, Revision A.03,
 Gaussian 16:  ES64L-G16RevA.03 25-Dec-2016

 -------------------------------------------
 #p opt=modredundant pop=MKUFF b3lyp/lanl2dz
 -------------------------------------------

 ---------------------
 O3G_1m_0sc_Sn_pop.gjf
 ---------------------
 Symbolic Z-matrix:
 Charge =  0 Multiplicity = 1

 SCF Done:  E(RB3LYP) =  -1725.43241811     A.U. after   15 cycles
 SCF Done:  E(RB3LYP) =  -1725.46609730     A.U. after   13 cycles
 SCF Done:  E(RB3LYP) =  -1725.47963171     A.U. after   13 cycles
 SCF Done:  E(RB3LYP) =  -1725.48142818     A.U. after   13 cycles
 SCF Done:  E(RB3LYP) =  -1725.48210258     A.U. after   12 cycles
 SCF Done:  E(RB3LYP) =  -1725.48228060     A.U. after   12 cycles
 SCF Done:  E(RB3LYP) =  -1725.48242693     A.U. after   12 cycles
 SCF Done:  E(RB3LYP) =  -1725.48248417     A.U. after   12 cycles
 SCF Done:  E(RB3LYP) =  -1725.48251691     A.U. after   10 cycles
 SCF Done:  E(RB3LYP) =  -1725.48254401     A.U. after   10 cycles
 SCF Done:  E(RB3LYP) =  -1725.48293969     A.U. after   11 cycles
 SCF Done:  E(RB3LYP) =  -1725.48297961     A.U. after   11 cycles
 SCF Done:  E(RB3LYP) =  -1725.48298698     A.U. after   11 cycles
 SCF Done:  E(RB3LYP) =  -1725.48298374     A.U. after   11 cycles
 SCF Done:  E(RB3LYP) =  -1725.48299224     A.U. after   11 cycles
 SCF Done:  E(RB3LYP) =  -1725.48299308     A.U. after    9 cycles
 SCF Done:  E(RB3LYP) =  -1725.48299324     A.U. after    7 cycles
 SCF Done:  E(RB3LYP) =  -1725.48299330     A.U. after    7 cycles
 SCF Done:  E(RB3LYP) =  -1725.48299331     A.U. after    6 cycles
 SCF Done:  E(RB3LYP) =  -1725.48299331     A.U. after    6 cycles
 Optimization completed.
    -- Stationary point found.

                         Standard orientation:
 ---------------------------------------------------------------------
 Center     Atomic      Atomic             Coordinates (Angstroms)
 Number     Number       Type             X           Y           Z
 ---------------------------------------------------------------------
      1          6           0       -0.130800   -0.708114   -0.000249
      2          6           0       -1.360550   -1.363490   -0.000489
      3          6           0       -1.288611   -2.800587   -0.000544
      4          6           0       -0.003651   -3.317326   -0.000364
      5         16           0        1.199323   -1.959434   -0.000062
      6          8           0       -2.538917   -0.615421   -0.000715
      7          1           0       -2.171602   -3.430514   -0.000808
      8          6           0        0.130830    0.708083   -0.000184
      9          6           0        1.360578    1.363465    0.000020
     10          6           0        1.288632    2.800562    0.000038
     11          6           0        0.003666    3.317289   -0.000164
     12         16           0       -1.199296    1.959404   -0.000380
     13          8           0        2.538948    0.615409    0.000215
     14          1           0        2.171614    3.430503    0.000187
     15          6           0       -3.813385   -1.330356   -0.000423
     16          1           0       -3.900552   -1.959603    0.895773
     17          1           0       -3.900917   -1.959686   -0.896526
     18          6           0       -4.897458   -0.258521   -0.000278
     19          1           0       -4.806027    0.377047    0.893953
     20          1           0       -4.806197    0.377095   -0.894492
     21          8           0       -6.165413   -0.975288   -0.000176
     22          6           0       -7.332469   -0.100392    0.000015
     23          1           0       -7.335327    0.542101    0.894314
     24          1           0       -7.335523    0.542231   -0.894189
     25          6           0       -8.556867   -1.008853    0.000083
     26          1           0       -8.552345   -1.652247    0.894118
     27          1           0       -8.552550   -1.652106   -0.894055
     28          8           0       -9.722348   -0.134416    0.000288
     29          6           0      -10.990616   -0.854679    0.000354
     30          1           0      -11.075059   -1.492356    0.894274
     31          1           0      -11.075265   -1.492156   -0.893690
     32          6           0      -12.093820    0.197623    0.000598
     33          1           0      -12.010115    0.835818   -0.893845
     34          1           0      -12.009923    0.835606    0.895173
     35          8           0      -13.355885   -0.530265    0.000647
     36          6           0      -14.522504    0.335483    0.000878
     37          1           0      -14.546540    0.976416   -0.895535
     38          1           0      -15.396600   -0.321130    0.000894
     39          1           0      -14.546345    0.976200    0.897452
     40          6           0        3.813408    1.330359    0.000152
     41          1           0        3.900757    1.959714    0.896254
     42          1           0        3.900740    1.959582   -0.896044
     43          6           0        4.897493    0.258536    0.000230
     44          1           0        4.806126   -0.377016    0.894479
     45          1           0        4.806182   -0.377099   -0.893965
     46          8           0        6.165441    0.975317    0.000237
     47          6           0        7.332506    0.100433    0.000278
     48          1           0        7.335462   -0.542093    0.894552
     49          1           0        7.335477   -0.542156   -0.893950
     50          6           0        8.556895    1.008908    0.000258
     51          1           0        8.552456    1.652268    0.894318
     52          1           0        8.552480    1.652195   -0.893855
     53          8           0        9.722386    0.134484    0.000309
     54          6           0       10.990645    0.854761    0.000297
     55          1           0       11.075176    1.492369    0.894259
     56          1           0       11.075193    1.492310   -0.893705
     57          6           0       12.093861   -0.197528    0.000343
     58          1           0       12.010080   -0.835644   -0.894148
     59          1           0       12.010055   -0.835591    0.894870
     60          8           0       13.355918    0.530374    0.000339
     61          6           0       14.522548   -0.335361    0.000379
     62          1           0       14.546505   -0.976211   -0.896096
     63          1           0       15.396636    0.321262    0.000373
     64          1           0       14.546481   -0.976161    0.896891
     65         50           0        0.566781   -5.369298   -0.000096
     66          6           0       -1.257029   -6.493503   -0.000890
     67          1           0       -1.855604   -6.265406   -0.891828
     68          1           0       -1.042402   -7.569868   -0.000633
     69          1           0       -1.856582   -6.265196    0.889338
     70          6           0        1.725862   -5.782193    1.753298
     71          1           0        2.636546   -5.170133    1.766111
     72          1           0        1.148352   -5.554709    2.657807
     73          1           0        2.020121   -6.839328    1.784870
     74          6           0        1.727351   -5.782381   -1.752456
     75          1           0        2.020411   -6.839843   -1.784373
     76          1           0        1.151121   -5.553658   -2.657467
     77          1           0        2.638780   -5.171400   -1.763866
     78         50           0       -0.566807    5.369255   -0.000175
     79          6           0       -1.726355    5.782359   -1.753209
     80          1           0       -2.637287    5.170656   -1.765562
     81          1           0       -2.020234    6.839604   -1.784780
     82          1           0       -1.149316    5.554552   -2.657933
     83          6           0       -1.727073    5.782032    1.752462
     84          1           0       -2.021006    6.839258    1.784125
     85          1           0       -2.637980    5.170285    1.764404
     86          1           0       -1.150330    5.554093    2.657345
     87          6           0        1.256974    6.493504    0.000412
     88          1           0        1.855584    6.265543    0.891360
     89          1           0        1.856516    6.265155   -0.889808
     90          1           0        1.042275    7.569859    0.000062
 ---------------------------------------------------------------------

 The electronic state is 1-A.
 Alpha  occ. eigenvalues --  -19.16501 -19.16501 -19.14348 -19.14348 -19.13984
 Alpha  occ. eigenvalues --  -19.13984 -19.13771 -19.13771 -10.25216 -10.25215
 Alpha  occ. eigenvalues --  -10.24855 -10.24855 -10.24116 -10.24116 -10.23852
 Alpha  occ. eigenvalues --  -10.23852 -10.23732 -10.23732 -10.23537 -10.23537
 Alpha  occ. eigenvalues --  -10.23496 -10.23495 -10.23144 -10.23144 -10.22137
 Alpha  occ. eigenvalues --  -10.22100 -10.19673 -10.19672 -10.19610 -10.19610
 Alpha  occ. eigenvalues --  -10.16321 -10.16321 -10.15948 -10.15947 -10.15947
 Alpha  occ. eigenvalues --  -10.15947  -1.05687  -1.05625  -1.03082  -1.03080
 Alpha  occ. eigenvalues --   -1.02359  -1.02357  -1.01575  -1.01575  -0.87497
 Alpha  occ. eigenvalues --   -0.85589  -0.79046  -0.78963  -0.76713  -0.76614
 Alpha  occ. eigenvalues --   -0.75475  -0.73082  -0.72681  -0.71273  -0.70237
 Alpha  occ. eigenvalues --   -0.69696  -0.69340  -0.68279  -0.67559  -0.67554
 Alpha  occ. eigenvalues --   -0.67275  -0.67275  -0.66787  -0.66464  -0.62518
 Alpha  occ. eigenvalues --   -0.62284  -0.61036  -0.61031  -0.60652  -0.60640
 Alpha  occ. eigenvalues --   -0.58513  -0.56057  -0.54188  -0.53729  -0.52828
 Alpha  occ. eigenvalues --   -0.50718  -0.50708  -0.50203  -0.50128  -0.49511
 Alpha  occ. eigenvalues --   -0.49495  -0.47636  -0.47605  -0.47579  -0.47222
 Alpha  occ. eigenvalues --   -0.47095  -0.46242  -0.46191  -0.45340  -0.45095
 Alpha  occ. eigenvalues --   -0.44233  -0.44131  -0.44079  -0.43921  -0.43779
 Alpha  occ. eigenvalues --   -0.43675  -0.42328  -0.42327  -0.42315  -0.41875
 Alpha  occ. eigenvalues --   -0.40753  -0.40537  -0.40204  -0.40188  -0.40036
 Alpha  occ. eigenvalues --   -0.39843  -0.39739  -0.39735  -0.39722  -0.39291
 Alpha  occ. eigenvalues --   -0.39224  -0.39155  -0.39105  -0.38905  -0.38740
 Alpha  occ. eigenvalues --   -0.38740  -0.38380  -0.37913  -0.36664  -0.36253
 Alpha  occ. eigenvalues --   -0.36215  -0.36152  -0.35779  -0.35133  -0.33881
 Alpha  occ. eigenvalues --   -0.33167  -0.32148  -0.32099  -0.31797  -0.31575
 Alpha  occ. eigenvalues --   -0.31566  -0.31495  -0.31146  -0.31081  -0.31081
 Alpha  occ. eigenvalues --   -0.29092  -0.28922  -0.28545  -0.28258  -0.28195
 Alpha  occ. eigenvalues --   -0.27960  -0.26351  -0.26345  -0.26199  -0.25812
 Alpha  occ. eigenvalues --   -0.25809  -0.25225  -0.25224  -0.23204  -0.22980
 Alpha  occ. eigenvalues --   -0.17863
 Alpha virt. eigenvalues --   -0.04442   0.00779   0.01703   0.02537   0.04742
 Alpha virt. eigenvalues --    0.05069   0.05111   0.05285   0.05727   0.05745
 Alpha virt. eigenvalues --    0.05993   0.07228   0.07259   0.07752   0.07759

 Mulliken charges:
               1
     1  C   -0.241308
     2  C    0.348814
     3  C   -0.206588
     4  C   -0.572475
     5  S    0.234525
     6  O   -0.331465
     7  H    0.246557
     8  C   -0.241309
     9  C    0.348811
    10  C   -0.206595
    11  C   -0.572469
    12  S    0.234529
    13  O   -0.331462
    14  H    0.246556
    15  C   -0.230063
    16  H    0.204353
    17  H    0.204347
    18  C   -0.223168
    19  H    0.194717
    20  H    0.194721
    21  O   -0.335982
    22  C   -0.209281
    23  H    0.190488
    24  H    0.190487
    25  C   -0.209043
    26  H    0.189150
    27  H    0.189149
    28  O   -0.339201
    29  C   -0.200285
    30  H    0.190560
    31  H    0.190562
    32  C   -0.223616
    33  H    0.188361
    34  H    0.188360
    35  O   -0.325149
    36  C   -0.440807
    37  H    0.191160
    38  H    0.223302
    39  H    0.191160
    40  C   -0.230062
    41  H    0.204348
    42  H    0.204352
    43  C   -0.223169
    44  H    0.194719
    45  H    0.194720
    46  O   -0.335982
    47  C   -0.209281
    48  H    0.190488
    49  H    0.190487
    50  C   -0.209043
    51  H    0.189149
    52  H    0.189149
    53  O   -0.339201
    54  C   -0.200285
    55  H    0.190561
    56  H    0.190560
    57  C   -0.223616
    58  H    0.188360
    59  H    0.188360
    60  O   -0.325149
    61  C   -0.440807
    62  H    0.191160
    63  H    0.223302
    64  H    0.191160
    65  Sn   1.198023
    66  C   -0.986178
    67  H    0.230855
    68  H    0.228934
    69  H    0.230848
    70  C   -0.967082
    71  H    0.231232
    72  H    0.231546
    73  H    0.221896
    74  C   -0.967095
    75  H    0.221900
    76  H    0.231564
    77  H    0.231216
    78  Sn   1.198023
    79  C   -0.967087
    80  H    0.231226
    81  H    0.221898
    82  H    0.231555
    83  C   -0.967088
    84  H    0.221897
    85  H    0.231225
    86  H    0.231551
    87  C   -0.986182
    88  H    0.230859
    89  H    0.230852
    90  H    0.228932
 Sum of Mulliken charges =  -0.00000

 Dipole moment (field-independent basis, Debye):
    X=              0.0000    Y=              0.0001    Z=              0.0005  Tot=              0.0005
 Quadrupole moment (field-independent basis, Debye-Ang):
   XX=           -228.9880   YY=           -252.4211   ZZ=           -279.3164
   XY=            -28.0372   XZ=             -0.0024   YZ=              0.0006

 ESP charges:
               1
     1  C   -0.059213
     2  C    0.602984
     3  C   -0.490977
     4  C   -0.246034
     5  S   -0.145860
     6  O   -0.612661
     7  H    0.188885
     8  C   -0.098948
     9  C    0.584580
    10  C   -0.469009
    11  C   -0.277218
    12  S   -0.102238
    13  O   -0.519947
    14  H    0.200139
    15  C    0.356070
    16  H    0.030990
    17  H    0.031028
    18  C    0.296168
    19  H    0.029585
    20  H    0.029600
    21  O   -0.760077
    22  C    0.359474
    23  H    0.000823
    24  H    0.000815
    25  C    0.463645
    26  H   -0.017548
    27  H   -0.017548
    28  O   -0.753707
    29  C    0.333765
    30  H    0.002290
    31  H    0.002296
    32  C    0.238516
    33  H    0.042855
    34  H    0.042858
    35  O   -0.524038
    36  C   -0.059968
    37  H    0.077928
    38  H    0.120335
    39  H    0.077930
    40  C    0.116433
    41  H    0.073226
    42  H    0.073213
    43  C    0.457609
    44  H    0.002125
    45  H    0.002133
    46  O   -0.758949
    47  C    0.309921
    48  H    0.004065
    49  H    0.004061
    50  C    0.490537
    51  H   -0.018069
    52  H   -0.018068
    53  O   -0.736740
    54  C    0.228364
    55  H    0.019485
    56  H    0.019485
    57  C    0.358770
    58  H    0.018477
    59  H    0.018477
    60  O   -0.538303
    61  C   -0.085429
    62  H    0.080611
    63  H    0.131112
    64  H    0.080611
    65  Sn   1.189761
    66  C   -0.837512
    67  H    0.185912
    68  H    0.183113
    69  H    0.185909
    70  C   -0.805205
    71  H    0.186217
    72  H    0.173689
    73  H    0.168823
    74  C   -0.805080
    75  H    0.168791
    76  H    0.173665
    77  H    0.186169
    78  Sn   1.185056
    79  C   -0.796575
    80  H    0.183456
    81  H    0.167064
    82  H    0.172087
    83  C   -0.796476
    84  H    0.167037
    85  H    0.183424
    86  H    0.172057
    87  C   -0.844703
    88  H    0.187458
    89  H    0.187453
    90  H    0.186683
 Sum of ESP charges =   0.00000

 Normal termination of Gaussian 16 at Tue Mar  3 13:19:08 2020.
