 Gaussian 16, Revision A.03,
 Gaussian 16:  ES64L-G16RevA.03 25-Dec-2016

 -------------------------------------------
 #p opt=modredundant pop=MKUFF b3lyp/lanl2dz
 -------------------------------------------

 ---------------------
 O3G_1m_0sc_Sn_pop.gjf
 ---------------------
 Symbolic Z-matrix:
 Charge =  0 Multiplicity = 1

 SCF Done:  E(RB3LYP) =  -1725.43110825     A.U. after   15 cycles
 SCF Done:  E(RB3LYP) =  -1725.46475472     A.U. after   13 cycles
 SCF Done:  E(RB3LYP) =  -1725.47841286     A.U. after   14 cycles
 SCF Done:  E(RB3LYP) =  -1725.48030105     A.U. after   13 cycles
 SCF Done:  E(RB3LYP) =  -1725.48096844     A.U. after   12 cycles
 SCF Done:  E(RB3LYP) =  -1725.48112947     A.U. after   12 cycles
 SCF Done:  E(RB3LYP) =  -1725.48131587     A.U. after   12 cycles
 SCF Done:  E(RB3LYP) =  -1725.48137189     A.U. after   10 cycles
 SCF Done:  E(RB3LYP) =  -1725.48140200     A.U. after   10 cycles
 SCF Done:  E(RB3LYP) =  -1725.48143146     A.U. after   11 cycles
 SCF Done:  E(RB3LYP) =  -1725.48188064     A.U. after   10 cycles
 SCF Done:  E(RB3LYP) =  -1725.48188325     A.U. after   10 cycles
 SCF Done:  E(RB3LYP) =  -1725.48188397     A.U. after    9 cycles
 SCF Done:  E(RB3LYP) =  -1725.48188448     A.U. after    7 cycles
 SCF Done:  E(RB3LYP) =  -1725.48188474     A.U. after    8 cycles
 SCF Done:  E(RB3LYP) =  -1725.48188482     A.U. after    7 cycles
 SCF Done:  E(RB3LYP) =  -1725.48188485     A.U. after    7 cycles
 SCF Done:  E(RB3LYP) =  -1725.48188486     A.U. after    6 cycles
 SCF Done:  E(RB3LYP) =  -1725.48188487     A.U. after    6 cycles
 SCF Done:  E(RB3LYP) =  -1725.48188487     A.U. after    5 cycles
 Optimization completed.
    -- Stationary point found.

                         Standard orientation:
 ---------------------------------------------------------------------
 Center     Atomic      Atomic             Coordinates (Angstroms)
 Number     Number       Type             X           Y           Z
 ---------------------------------------------------------------------
      1          6           0        0.128097   -0.713095   -0.349249
      2          6           0        1.355248   -1.362258   -0.236787
      3          6           0        1.297479   -2.798336   -0.321243
      4          6           0        0.029480   -3.318015   -0.521588
      5         16           0       -1.175225   -1.965075   -0.608926
      6          8           0        2.520254   -0.611647   -0.071086
      7          1           0        2.178040   -3.425454   -0.232807
      8          6           0       -0.141037    0.702411   -0.393246
      9          6           0       -1.361429    1.357244   -0.245966
     10          6           0       -1.297609    2.793359   -0.321757
     11          6           0       -0.026935    3.308207   -0.518566
     12         16           0        1.172365    1.950663   -0.610864
     13          8           0       -2.525515    0.610045   -0.059932
     14          1           0       -2.174861    3.424179   -0.226760
     15          6           0        3.785349   -1.324120    0.094909
     16          1           0        4.008723   -1.924745   -0.797385
     17          1           0        3.743797   -1.981166    0.974295
     18          6           0        4.849743   -0.249868    0.287306
     19          1           0        4.880108    0.417967   -0.587410
     20          1           0        4.627865    0.352127    1.181824
     21          8           0        6.111425   -0.961494    0.440577
     22          6           0        7.257903   -0.082368    0.640893
     23          1           0        7.382536    0.594328   -0.218850
     24          1           0        7.126546    0.525204    1.549834
     25          6           0        8.478785   -0.984520    0.782295
     26          1           0        8.608669   -1.593199   -0.126503
     27          1           0        8.353301   -1.661530    1.642057
     28          8           0        9.623310   -0.105062    0.981493
     29          6           0       10.885849   -0.818391    1.137617
     30          1           0       11.104088   -1.422139    0.242785
     31          1           0       10.848149   -1.488048    2.011114
     32          6           0       11.966667    0.238910    1.333498
     33          1           0       11.748814    0.843320    2.228795
     34          1           0       12.005331    0.908945    0.459491
     35          8           0       13.223262   -0.481815    1.488958
     36          6           0       14.368594    0.389532    1.687704
     37          1           0       14.256739    0.997098    2.600550
     38          1           0       15.240500   -0.261982    1.790147
     39          1           0       14.514323    1.062997    0.827387
     40          6           0       -3.789811    1.325880    0.096915
     41          1           0       -4.010511    1.918316   -0.801506
     42          1           0       -3.749132    1.991261    0.970075
     43          6           0       -4.856052    0.255078    0.297957
     44          1           0       -4.887395   -0.419985   -0.571144
     45          1           0       -4.635329   -0.339807    1.197511
     46          8           0       -6.116583    0.970064    0.445064
     47          6           0       -7.264907    0.094445    0.650044
     48          1           0       -7.389027   -0.588748   -0.204622
     49          1           0       -7.136331   -0.506223    1.563957
     50          6           0       -8.484551    0.999721    0.781842
     51          1           0       -8.611087    1.601879   -0.131760
     52          1           0       -8.360045    1.682860    1.636884
     53          8           0       -9.631126    0.123757    0.984636
     54          6           0      -10.892869    0.840408    1.131690
     55          1           0      -11.107243    1.438088    0.231862
     56          1           0      -10.856705    1.516263    2.000464
     57          6           0      -11.976182   -0.213556    1.331724
     58          1           0      -11.762294   -0.811868    2.232058
     59          1           0      -12.013211   -0.889810    0.462450
     60          8           0      -13.231997    0.510468    1.477911
     61          6           0      -14.379539   -0.357430    1.678967
     62          1           0      -14.271822   -0.958730    2.596447
     63          1           0      -15.250617    0.296328    1.773884
     64          1           0      -14.523598   -1.036697    0.822940
     65         50           0       -0.520913   -5.370138   -0.675927
     66          6           0        1.304660   -6.485562   -0.562701
     67          1           0        1.811538   -6.309262    0.394442
     68          1           0        1.101181   -7.560744   -0.647596
     69          1           0        1.985719   -6.202013   -1.374958
     70          6           0       -1.510140   -5.694325   -2.547623
     71          1           0       -2.421270   -5.086215   -2.612555
     72          1           0       -0.854123   -5.417034   -3.381978
     73          1           0       -1.790980   -6.749418   -2.661588
     74          6           0       -1.834193   -5.876828    0.938839
     75          1           0       -2.116907   -6.936564    0.892221
     76          1           0       -1.347080   -5.688718    1.903584
     77          1           0       -2.749409   -5.273135    0.894175
     78         50           0        0.530205    5.357845   -0.680610
     79          6           0        1.979849    5.816286    0.828031
     80          1           0        2.880918    5.204277    0.695145
     81          1           0        2.270835    6.873642    0.778957
     82          1           0        1.572732    5.613450    1.826265
     83          6           0        1.362282    5.714557   -2.621909
     84          1           0        1.641415    6.769916   -2.737802
     85          1           0        2.259436    5.101498   -2.774759
     86          1           0        0.636358    5.458907   -3.403648
     87          6           0       -1.267850    6.487133   -0.395196
     88          1           0       -2.010546    6.240306   -1.164371
     89          1           0       -1.705052    6.281278    0.589928
     90          1           0       -1.057445    7.562530   -0.457446
 ---------------------------------------------------------------------

 The electronic state is 1-A.
 Alpha  occ. eigenvalues --  -19.16439 -19.16431 -19.14328 -19.14321 -19.13975
 Alpha  occ. eigenvalues --  -19.13972 -19.13767 -19.13764 -10.25247 -10.25233
 Alpha  occ. eigenvalues --  -10.24819 -10.24809 -10.24088 -10.24080 -10.23835
 Alpha  occ. eigenvalues --  -10.23830 -10.23723 -10.23718 -10.23532 -10.23529
 Alpha  occ. eigenvalues --  -10.23490 -10.23488 -10.23141 -10.23139 -10.22069
 Alpha  occ. eigenvalues --  -10.22029 -10.19722 -10.19716 -10.19653 -10.19649
 Alpha  occ. eigenvalues --  -10.16339 -10.16337 -10.15984 -10.15967 -10.15957
 Alpha  occ. eigenvalues --  -10.15942  -1.05634  -1.05572  -1.03065  -1.03060
 Alpha  occ. eigenvalues --   -1.02346  -1.02341  -1.01567  -1.01564  -0.87496
 Alpha  occ. eigenvalues --   -0.85596  -0.79020  -0.78942  -0.76697  -0.76593
 Alpha  occ. eigenvalues --   -0.75453  -0.73062  -0.72675  -0.71278  -0.70222
 Alpha  occ. eigenvalues --   -0.69709  -0.69353  -0.68276  -0.67575  -0.67571
 Alpha  occ. eigenvalues --   -0.67291  -0.67290  -0.66776  -0.66458  -0.62485
 Alpha  occ. eigenvalues --   -0.62250  -0.61019  -0.61012  -0.60643  -0.60632
 Alpha  occ. eigenvalues --   -0.58498  -0.56002  -0.54147  -0.53724  -0.52871
 Alpha  occ. eigenvalues --   -0.50695  -0.50684  -0.50189  -0.50115  -0.49492
 Alpha  occ. eigenvalues --   -0.49477  -0.47652  -0.47589  -0.47562  -0.47201
 Alpha  occ. eigenvalues --   -0.47088  -0.46222  -0.46180  -0.45312  -0.45101
 Alpha  occ. eigenvalues --   -0.44220  -0.44117  -0.44070  -0.43911  -0.43768
 Alpha  occ. eigenvalues --   -0.43665  -0.42352  -0.42314  -0.42221  -0.41840
 Alpha  occ. eigenvalues --   -0.40781  -0.40548  -0.40219  -0.40204  -0.40053
 Alpha  occ. eigenvalues --   -0.39854  -0.39749  -0.39724  -0.39716  -0.39307
 Alpha  occ. eigenvalues --   -0.39236  -0.39167  -0.39122  -0.38892  -0.38755
 Alpha  occ. eigenvalues --   -0.38754  -0.38445  -0.37758  -0.36677  -0.36220
 Alpha  occ. eigenvalues --   -0.36187  -0.36133  -0.35785  -0.34921  -0.33791
 Alpha  occ. eigenvalues --   -0.33282  -0.32127  -0.32105  -0.31750  -0.31628
 Alpha  occ. eigenvalues --   -0.31557  -0.31549  -0.31167  -0.31076  -0.31074
 Alpha  occ. eigenvalues --   -0.29166  -0.29029  -0.28474  -0.28283  -0.28218
 Alpha  occ. eigenvalues --   -0.27963  -0.26331  -0.26325  -0.26057  -0.25800
 Alpha  occ. eigenvalues --   -0.25796  -0.25218  -0.25215  -0.23243  -0.22808
 Alpha  occ. eigenvalues --   -0.17983
 Alpha virt. eigenvalues --   -0.04421   0.00460   0.01886   0.02535   0.04757
 Alpha virt. eigenvalues --    0.05019   0.05110   0.05259   0.05653   0.05694
 Alpha virt. eigenvalues --    0.05969   0.07166   0.07262   0.07697   0.07774

 Mulliken charges:
               1
     1  C   -0.247029
     2  C    0.350374
     3  C   -0.205743
     4  C   -0.571354
     5  S    0.228066
     6  O   -0.328051
     7  H    0.246616
     8  C   -0.242584
     9  C    0.355471
    10  C   -0.206211
    11  C   -0.571347
    12  S    0.229627
    13  O   -0.327349
    14  H    0.246518
    15  C   -0.230995
    16  H    0.203971
    17  H    0.204004
    18  C   -0.223230
    19  H    0.194149
    20  H    0.195272
    21  O   -0.335985
    22  C   -0.209104
    23  H    0.190328
    24  H    0.190579
    25  C   -0.209122
    26  H    0.189150
    27  H    0.189086
    28  O   -0.339203
    29  C   -0.200277
    30  H    0.190505
    31  H    0.190562
    32  C   -0.223601
    33  H    0.188384
    34  H    0.188340
    35  O   -0.325159
    36  C   -0.440811
    37  H    0.191160
    38  H    0.223288
    39  H    0.191150
    40  C   -0.230931
    41  H    0.203874
    42  H    0.203846
    43  C   -0.223309
    44  H    0.194170
    45  H    0.195287
    46  O   -0.335977
    47  C   -0.209064
    48  H    0.190305
    49  H    0.190576
    50  C   -0.209130
    51  H    0.189134
    52  H    0.189093
    53  O   -0.339203
    54  C   -0.200270
    55  H    0.190482
    56  H    0.190574
    57  C   -0.223607
    58  H    0.188390
    59  H    0.188333
    60  O   -0.325160
    61  C   -0.440811
    62  H    0.191159
    63  H    0.223284
    64  H    0.191148
    65  Sn   1.198360
    66  C   -0.986159
    67  H    0.230501
    68  H    0.229034
    69  H    0.231378
    70  C   -0.968393
    71  H    0.231908
    72  H    0.231983
    73  H    0.222027
    74  C   -0.966005
    75  H    0.221984
    76  H    0.231288
    77  H    0.231154
    78  Sn   1.198703
    79  C   -0.968428
    80  H    0.231250
    81  H    0.222135
    82  H    0.231880
    83  C   -0.965930
    84  H    0.221880
    85  H    0.231701
    86  H    0.231355
    87  C   -0.986099
    88  H    0.230472
    89  H    0.231392
    90  H    0.228996
 Sum of Mulliken charges =  -0.00000

 Dipole moment (field-independent basis, Debye):
    X=              0.0197    Y=              0.0074    Z=              0.5042  Tot=              0.5046
 Quadrupole moment (field-independent basis, Debye-Ang):
   XX=           -230.8847   YY=           -251.7952   ZZ=           -278.2684
   XY=             27.7627   XZ=             -0.0514   YZ=              0.1297

 ESP charges:
               1
     1  C   -0.164124
     2  C    0.612678
     3  C   -0.392177
     4  C   -0.323964
     5  S   -0.055347
     6  O   -0.620755
     7  H    0.161067
     8  C   -0.031472
     9  C    0.547379
    10  C   -0.380414
    11  C   -0.330880
    12  S   -0.083723
    13  O   -0.634845
    14  H    0.161634
    15  C    0.327641
    16  H    0.041848
    17  H    0.029615
    18  C    0.302104
    19  H    0.036711
    20  H    0.023003
    21  O   -0.755216
    22  C    0.385773
    23  H   -0.002668
    24  H    0.004741
    25  C    0.362285
    26  H    0.010092
    27  H    0.010763
    28  O   -0.725991
    29  C    0.269976
    30  H    0.021498
    31  H    0.019709
    32  C    0.254516
    33  H    0.044766
    34  H    0.045994
    35  O   -0.519850
    36  C   -0.084664
    37  H    0.083146
    38  H    0.129619
    39  H    0.080923
    40  C    0.406955
    41  H    0.026013
    42  H    0.020527
    43  C    0.241240
    44  H    0.049156
    45  H    0.038681
    46  O   -0.746609
    47  C    0.300906
    48  H    0.015627
    49  H    0.022279
    50  C    0.454369
    51  H   -0.006933
    52  H   -0.006806
    53  O   -0.737308
    54  C    0.282384
    55  H    0.014713
    56  H    0.014541
    57  C    0.235513
    58  H    0.050440
    59  H    0.050296
    60  O   -0.511509
    61  C   -0.108504
    62  H    0.088938
    63  H    0.136419
    64  H    0.087011
    65  Sn   1.184277
    66  C   -0.839733
    67  H    0.189789
    68  H    0.182863
    69  H    0.188847
    70  C   -0.783322
    71  H    0.184102
    72  H    0.168720
    73  H    0.162845
    74  C   -0.809437
    75  H    0.175717
    76  H    0.175717
    77  H    0.178479
    78  Sn   1.181802
    79  C   -0.811704
    80  H    0.180374
    81  H    0.175217
    82  H    0.178180
    83  C   -0.788608
    84  H    0.164590
    85  H    0.187369
    86  H    0.169091
    87  C   -0.818653
    88  H    0.183505
    89  H    0.183104
    90  H    0.177137
 Sum of ESP charges =   0.00000

 Normal termination of Gaussian 16 at Tue Mar  3 13:17:44 2020.
