 Gaussian 16, Revision A.03,
 Gaussian 16:  ES64L-G16RevA.03 25-Dec-2016

 -------------------------------------------
 #p opt=modredundant pop=MKUFF b3lyp/lanl2dz
 -------------------------------------------

 ---------------------
 O3G_1m_0sc_Sn_pop.gjf
 ---------------------
 Symbolic Z-matrix:
 Charge =  0 Multiplicity = 1

 SCF Done:  E(RB3LYP) =  -1725.42994691     A.U. after   15 cycles
 SCF Done:  E(RB3LYP) =  -1725.46351348     A.U. after   13 cycles
 SCF Done:  E(RB3LYP) =  -1725.47717223     A.U. after   14 cycles
 SCF Done:  E(RB3LYP) =  -1725.47910919     A.U. after   13 cycles
 SCF Done:  E(RB3LYP) =  -1725.47980000     A.U. after   12 cycles
 SCF Done:  E(RB3LYP) =  -1725.47996884     A.U. after   12 cycles
 SCF Done:  E(RB3LYP) =  -1725.48013952     A.U. after   12 cycles
 SCF Done:  E(RB3LYP) =  -1725.48019975     A.U. after   11 cycles
 SCF Done:  E(RB3LYP) =  -1725.48024310     A.U. after   11 cycles
 SCF Done:  E(RB3LYP) =  -1725.48026261     A.U. after   10 cycles
 SCF Done:  E(RB3LYP) =  -1725.48071529     A.U. after   11 cycles
 SCF Done:  E(RB3LYP) =  -1725.48071832     A.U. after   10 cycles
 SCF Done:  E(RB3LYP) =  -1725.48072017     A.U. after   11 cycles
 SCF Done:  E(RB3LYP) =  -1725.48072061     A.U. after   10 cycles
 SCF Done:  E(RB3LYP) =  -1725.48072098     A.U. after    9 cycles
 SCF Done:  E(RB3LYP) =  -1725.48072119     A.U. after    9 cycles
 SCF Done:  E(RB3LYP) =  -1725.48072127     A.U. after    7 cycles
 SCF Done:  E(RB3LYP) =  -1725.48072129     A.U. after    7 cycles
 SCF Done:  E(RB3LYP) =  -1725.48072130     A.U. after    6 cycles
 SCF Done:  E(RB3LYP) =  -1725.48072131     A.U. after    6 cycles
 Optimization completed.
    -- Stationary point found.

                         Standard orientation:
 ---------------------------------------------------------------------
 Center     Atomic      Atomic             Coordinates (Angstroms)
 Number     Number       Type             X           Y           Z
 ---------------------------------------------------------------------
      1          6           0        0.128439   -0.720020   -0.574914
      2          6           0        1.350496   -1.357523   -0.381621
      3          6           0        1.316114   -2.792693   -0.503836
      4          6           0        0.075063   -3.320100   -0.819487
      5         16           0       -1.132877   -1.976985   -0.975133
      6          8           0        2.490317   -0.600247   -0.107165
      7          1           0        2.192893   -3.413816   -0.355710
      8          6           0       -0.155687    0.693674   -0.630972
      9          6           0       -1.366383    1.343392   -0.409532
     10          6           0       -1.318656    2.778255   -0.527123
     11          6           0       -0.069699    3.294731   -0.830324
     12         16           0        1.128552    1.941524   -0.975928
     13          8           0       -2.507665    0.594586   -0.118936
     14          1           0       -2.190353    3.407276   -0.382262
     15          6           0        3.743319   -1.305695    0.153490
     16          1           0        4.049096   -1.886877   -0.727235
     17          1           0        3.633483   -1.980242    1.013596
     18          6           0        4.775680   -0.225819    0.456694
     19          1           0        4.872738    0.459911   -0.399097
     20          1           0        4.471863    0.355877    1.340494
     21          8           0        6.027814   -0.928315    0.702915
     22          6           0        7.143120   -0.042529    1.017103
     23          1           0        7.331635    0.653771    0.185087
     24          1           0        6.928955    0.544043    1.924099
     25          6           0        8.358179   -0.935533    1.242048
     26          1           0        8.571241   -1.522722    0.334799
     27          1           0        8.168595   -1.632560    2.073605
     28          8           0        9.471600   -0.049580    1.555853
     29          6           0       10.724970   -0.753752    1.801531
     30          1           0       11.025065   -1.333562    0.914608
     31          1           0       10.621935   -1.444596    2.652994
     32          6           0       11.772643    0.309345    2.112388
     33          1           0       11.473194    0.889460    3.000148
     34          1           0       11.876231    1.000884    1.260700
     35          8           0       13.020493   -0.402145    2.355927
     36          6           0       14.134497    0.475731    2.670317
     37          1           0       13.939438    1.059618    3.584628
     38          1           0       15.002724   -0.169141    2.830040
     39          1           0       14.343244    1.171500    1.841301
     40          6           0       -3.758111    1.308693    0.129787
     41          1           0       -4.059007    1.880203   -0.758925
     42          1           0       -3.647586    1.993492    0.981691
     43          6           0       -4.795782    0.237301    0.444571
     44          1           0       -4.896871   -0.456963   -0.403825
     45          1           0       -4.494279   -0.336537    1.334288
     46          8           0       -6.044218    0.948646    0.684204
     47          6           0       -7.163703    0.071852    1.008542
     48          1           0       -7.356738   -0.631884    0.183854
     49          1           0       -6.951543   -0.506580    1.921221
     50          6           0       -8.373850    0.973396    1.225776
     51          1           0       -8.585181    1.552191    0.312747
     52          1           0       -8.179478    1.678064    2.049754
     53          8           0       -9.491409    0.096573    1.550362
     54          6           0      -10.740684    0.809843    1.790557
     55          1           0      -11.039327    1.381624    0.897949
     56          1           0      -10.632581    1.509279    2.634346
     57          6           0      -11.793301   -0.244371    2.114663
     58          1           0      -11.495274   -0.816445    3.008102
     59          1           0      -11.902018   -0.944498    1.270665
     60          8           0      -13.037009    0.476187    2.352695
     61          6           0      -14.154962   -0.392444    2.678530
     62          1           0      -13.961252   -0.967429    3.598751
     63          1           0      -15.019549    0.258613    2.832815
     64          1           0      -14.368823   -1.096034    1.857456
     65         50           0       -0.439404   -5.374159   -1.057010
     66          6           0        1.373882   -6.477541   -0.766757
     67          1           0        1.778380   -6.306013    0.238744
     68          1           0        1.188882   -7.553334   -0.880979
     69          1           0        2.132423   -6.181962   -1.502487
     70          6           0       -1.222738   -5.679905   -3.026630
     71          1           0       -2.127511   -5.078060   -3.179270
     72          1           0       -0.485004   -5.385814   -3.783373
     73          1           0       -1.480175   -6.735463   -3.183437
     74          6           0       -1.911197   -5.909015    0.404378
     75          1           0       -2.181747   -6.969053    0.313647
     76          1           0       -1.528536   -5.732953    1.417260
     77          1           0       -2.819968   -5.308353    0.272613
     78         50           0        0.462129    5.343370   -1.075552
     79          6           0        1.992903    5.847586    0.335106
     80          1           0        2.888099    5.235700    0.166815
     81          1           0        2.274844    6.904391    0.241626
     82          1           0        1.644586    5.669717    1.359989
     83          6           0        1.177919    5.654586   -3.070053
     84          1           0        1.440559    6.708557   -3.229034
     85          1           0        2.070265    5.044442   -3.258508
     86          1           0        0.410690    5.373176   -3.801881
     87          6           0       -1.325083    6.467954   -0.713991
     88          1           0       -2.109809    6.195203   -1.430873
     89          1           0       -1.701533    6.286063    0.300507
     90          1           0       -1.127706    7.542657   -0.817264
 ---------------------------------------------------------------------

 The electronic state is 1-A.
 Alpha  occ. eigenvalues --  -19.16362 -19.16350 -19.14302 -19.14290 -19.13965
 Alpha  occ. eigenvalues --  -19.13958 -19.13762 -19.13757 -10.25285 -10.25263
 Alpha  occ. eigenvalues --  -10.24770 -10.24754 -10.24054 -10.24039 -10.23815
 Alpha  occ. eigenvalues --  -10.23805 -10.23710 -10.23702 -10.23524 -10.23518
 Alpha  occ. eigenvalues --  -10.23484 -10.23479 -10.23137 -10.23134 -10.21983
 Alpha  occ. eigenvalues --  -10.21937 -10.19801 -10.19796 -10.19680 -10.19675
 Alpha  occ. eigenvalues --  -10.16358 -10.16357 -10.16006 -10.15992 -10.15965
 Alpha  occ. eigenvalues --  -10.15960  -1.05572  -1.05507  -1.03047  -1.03037
 Alpha  occ. eigenvalues --   -1.02331  -1.02322  -1.01558  -1.01552  -0.87495
 Alpha  occ. eigenvalues --   -0.85607  -0.78990  -0.78921  -0.76677  -0.76565
 Alpha  occ. eigenvalues --   -0.75427  -0.73039  -0.72671  -0.71285  -0.70206
 Alpha  occ. eigenvalues --   -0.69724  -0.69368  -0.68274  -0.67595  -0.67590
 Alpha  occ. eigenvalues --   -0.67310  -0.67307  -0.66764  -0.66452  -0.62448
 Alpha  occ. eigenvalues --   -0.62207  -0.61000  -0.60990  -0.60633  -0.60622
 Alpha  occ. eigenvalues --   -0.58483  -0.55926  -0.54101  -0.53730  -0.52929
 Alpha  occ. eigenvalues --   -0.50668  -0.50656  -0.50172  -0.50100  -0.49470
 Alpha  occ. eigenvalues --   -0.49456  -0.47675  -0.47568  -0.47541  -0.47181
 Alpha  occ. eigenvalues --   -0.47080  -0.46201  -0.46167  -0.45280  -0.45108
 Alpha  occ. eigenvalues --   -0.44199  -0.44102  -0.44059  -0.43896  -0.43756
 Alpha  occ. eigenvalues --   -0.43655  -0.42345  -0.42302  -0.42138  -0.41793
 Alpha  occ. eigenvalues --   -0.40814  -0.40562  -0.40237  -0.40223  -0.40080
 Alpha  occ. eigenvalues --   -0.39867  -0.39751  -0.39723  -0.39703  -0.39327
 Alpha  occ. eigenvalues --   -0.39246  -0.39183  -0.39143  -0.38876  -0.38774
 Alpha  occ. eigenvalues --   -0.38770  -0.38502  -0.37596  -0.36690  -0.36181
 Alpha  occ. eigenvalues --   -0.36163  -0.36108  -0.35792  -0.34656  -0.33677
 Alpha  occ. eigenvalues --   -0.33403  -0.32104  -0.32096  -0.32009  -0.31548
 Alpha  occ. eigenvalues --   -0.31539  -0.31482  -0.31212  -0.31071  -0.31066
 Alpha  occ. eigenvalues --   -0.29240  -0.29164  -0.28412  -0.28309  -0.28238
 Alpha  occ. eigenvalues --   -0.27970  -0.26311  -0.26301  -0.25848  -0.25787
 Alpha  occ. eigenvalues --   -0.25779  -0.25210  -0.25204  -0.23297  -0.22608
 Alpha  occ. eigenvalues --   -0.18160
 Alpha virt. eigenvalues --   -0.04371   0.00124   0.02037   0.02524   0.04758
 Alpha virt. eigenvalues --    0.04963   0.05101   0.05230   0.05556   0.05658
 Alpha virt. eigenvalues --    0.05959   0.07094   0.07271   0.07659   0.07760

 Mulliken charges:
               1
     1  C   -0.251913
     2  C    0.352237
     3  C   -0.204731
     4  C   -0.569939
     5  S    0.221486
     6  O   -0.323465
     7  H    0.246708
     8  C   -0.244792
     9  C    0.360952
    10  C   -0.205571
    11  C   -0.569712
    12  S    0.223172
    13  O   -0.322509
    14  H    0.246550
    15  C   -0.232214
    16  H    0.203411
    17  H    0.203665
    18  C   -0.223428
    19  H    0.194154
    20  H    0.195285
    21  O   -0.335999
    22  C   -0.208953
    23  H    0.190201
    24  H    0.190609
    25  C   -0.209151
    26  H    0.189055
    27  H    0.189101
    28  O   -0.339187
    29  C   -0.200262
    30  H    0.190517
    31  H    0.190485
    32  C   -0.223618
    33  H    0.188388
    34  H    0.188339
    35  O   -0.325166
    36  C   -0.440811
    37  H    0.191159
    38  H    0.223271
    39  H    0.191137
    40  C   -0.232024
    41  H    0.203152
    42  H    0.203542
    43  C   -0.223503
    44  H    0.194204
    45  H    0.195333
    46  O   -0.336000
    47  C   -0.208907
    48  H    0.190217
    49  H    0.190581
    50  C   -0.209159
    51  H    0.189044
    52  H    0.189084
    53  O   -0.339179
    54  C   -0.200248
    55  H    0.190517
    56  H    0.190458
    57  C   -0.223629
    58  H    0.188387
    59  H    0.188346
    60  O   -0.325170
    61  C   -0.440811
    62  H    0.191156
    63  H    0.223261
    64  H    0.191136
    65  Sn   1.198746
    66  C   -0.986242
    67  H    0.230873
    68  H    0.229142
    69  H    0.231178
    70  C   -0.967780
    71  H    0.232307
    72  H    0.231887
    73  H    0.222096
    74  C   -0.966715
    75  H    0.222119
    76  H    0.231450
    77  H    0.231561
    78  Sn   1.199332
    79  C   -0.968010
    80  H    0.231474
    81  H    0.222214
    82  H    0.231740
    83  C   -0.966389
    84  H    0.222000
    85  H    0.232141
    86  H    0.231603
    87  C   -0.986170
    88  H    0.230785
    89  H    0.231293
    90  H    0.229109
 Sum of Mulliken charges =  -0.00000

 Dipole moment (field-independent basis, Debye):
    X=              0.0346    Y=              0.0201    Z=              0.7897  Tot=              0.7907
 Quadrupole moment (field-independent basis, Debye-Ang):
   XX=           -233.5356   YY=           -251.0126   ZZ=           -276.7218
   XY=             27.2281   XZ=             -0.1587   YZ=              0.0579

 ESP charges:
               1
     1  C   -0.162695
     2  C    0.563205
     3  C   -0.315978
     4  C   -0.373539
     5  S   -0.026337
     6  O   -0.653128
     7  H    0.140294
     8  C    0.028563
     9  C    0.452229
    10  C   -0.271655
    11  C   -0.408433
    12  S   -0.059782
    13  O   -0.685345
    14  H    0.131580
    15  C    0.406693
    16  H    0.028136
    17  H    0.015439
    18  C    0.254294
    19  H    0.047096
    20  H    0.033812
    21  O   -0.752290
    22  C    0.349683
    23  H    0.007830
    24  H    0.012801
    25  C    0.393437
    26  H    0.006900
    27  H    0.008536
    28  O   -0.725083
    29  C    0.211954
    30  H    0.034086
    31  H    0.030023
    32  C    0.307180
    33  H    0.036153
    34  H    0.036270
    35  O   -0.524145
    36  C   -0.106054
    37  H    0.084819
    38  H    0.136731
    39  H    0.087290
    40  C    0.603020
    41  H   -0.009964
    42  H   -0.018179
    43  C    0.129890
    44  H    0.061533
    45  H    0.057776
    46  O   -0.768096
    47  C    0.410637
    48  H    0.000502
    49  H    0.004963
    50  C    0.364226
    51  H    0.011509
    52  H    0.011667
    53  O   -0.726583
    54  C    0.266046
    55  H    0.024241
    56  H    0.025653
    57  C    0.200150
    58  H    0.061813
    59  H    0.060850
    60  O   -0.500767
    61  C   -0.121643
    62  H    0.091963
    63  H    0.139521
    64  H    0.092418
    65  Sn   1.190427
    66  C   -0.846634
    67  H    0.192190
    68  H    0.184338
    69  H    0.192208
    70  C   -0.777455
    71  H    0.183421
    72  H    0.166630
    73  H    0.162064
    74  C   -0.818050
    75  H    0.178246
    76  H    0.179588
    77  H    0.180025
    78  Sn   1.206541
    79  C   -0.823939
    80  H    0.183527
    81  H    0.177433
    82  H    0.182330
    83  C   -0.793855
    84  H    0.164600
    85  H    0.189720
    86  H    0.171377
    87  C   -0.835174
    88  H    0.188548
    89  H    0.188217
    90  H    0.179958
 Sum of ESP charges =   0.00000

 Normal termination of Gaussian 16 at Tue Mar  3 13:16:05 2020.
