 Gaussian 16, Revision A.03,
 Gaussian 16:  ES64L-G16RevA.03 25-Dec-2016

 -------------------------------------------
 #p opt=modredundant pop=MKUFF b3lyp/lanl2dz
 -------------------------------------------

 ---------------------
 O3G_1m_0sc_Sn_pop.gjf
 ---------------------
 Symbolic Z-matrix:
 Charge =  0 Multiplicity = 1

 SCF Done:  E(RB3LYP) =  -1725.42882918     A.U. after   16 cycles
 SCF Done:  E(RB3LYP) =  -1725.46230504     A.U. after   13 cycles
 SCF Done:  E(RB3LYP) =  -1725.47590181     A.U. after   14 cycles
 SCF Done:  E(RB3LYP) =  -1725.47784542     A.U. after   13 cycles
 SCF Done:  E(RB3LYP) =  -1725.47854791     A.U. after   12 cycles
 SCF Done:  E(RB3LYP) =  -1725.47873803     A.U. after   12 cycles
 SCF Done:  E(RB3LYP) =  -1725.47889389     A.U. after   12 cycles
 SCF Done:  E(RB3LYP) =  -1725.47894679     A.U. after   10 cycles
 SCF Done:  E(RB3LYP) =  -1725.47898948     A.U. after   11 cycles
 SCF Done:  E(RB3LYP) =  -1725.47900339     A.U. after   10 cycles
 SCF Done:  E(RB3LYP) =  -1725.47947637     A.U. after    9 cycles
 SCF Done:  E(RB3LYP) =  -1725.47947876     A.U. after    9 cycles
 SCF Done:  E(RB3LYP) =  -1725.47947987     A.U. after    9 cycles
 SCF Done:  E(RB3LYP) =  -1725.47948007     A.U. after    7 cycles
 SCF Done:  E(RB3LYP) =  -1725.47948017     A.U. after    7 cycles
 SCF Done:  E(RB3LYP) =  -1725.47948022     A.U. after    7 cycles
 SCF Done:  E(RB3LYP) =  -1725.47948023     A.U. after    6 cycles
 SCF Done:  E(RB3LYP) =  -1725.47948024     A.U. after    6 cycles
 SCF Done:  E(RB3LYP) =  -1725.47948025     A.U. after    6 cycles
 SCF Done:  E(RB3LYP) =  -1725.47948025     A.U. after    6 cycles
 Optimization completed.
    -- Stationary point found.

                         Standard orientation:
 ---------------------------------------------------------------------
 Center     Atomic      Atomic             Coordinates (Angstroms)
 Number     Number       Type             X           Y           Z
 ---------------------------------------------------------------------
      1          6           0        0.133963   -0.728407   -0.808409
      2          6           0        1.345740   -1.348800   -0.526029
      3          6           0        1.345804   -2.782545   -0.681416
      4          6           0        0.144948   -3.321864   -1.111657
      5         16           0       -1.066157   -1.993526   -1.344212
      6          8           0        2.443477   -0.581226   -0.134651
      7          1           0        2.216576   -3.394268   -0.471603
      8          6           0       -0.173756    0.682061   -0.865923
      9          6           0       -1.368861    1.322992   -0.560097
     10          6           0       -1.347711    2.755901   -0.718813
     11          6           0       -0.135305    3.276007   -1.140943
     12         16           0        1.059927    1.930165   -1.356751
     13          8           0       -2.470731    0.571564   -0.150072
     14          1           0       -2.210237    3.381202   -0.515002
     15          6           0        3.681277   -1.274547    0.215683
     16          1           0        4.070990   -1.830094   -0.648351
     17          1           0        3.510772   -1.970992    1.048086
     18          6           0        4.665352   -0.186473    0.629567
     19          1           0        4.822628    0.520600   -0.199455
     20          1           0        4.277638    0.369622    1.496880
     21          8           0        5.904245   -0.875030    0.966143
     22          6           0        6.973750    0.020354    1.392185
     23          1           0        7.220125    0.737715    0.593858
     24          1           0        6.673840    0.583425    2.289733
     25          6           0        8.180323   -0.859094    1.700707
     26          1           0        8.478581   -1.423250    0.802898
     27          1           0        7.933106   -1.576747    2.498923
     28          8           0        9.248706    0.036113    2.125330
     29          6           0       10.488189   -0.654938    2.461834
     30          1           0       10.870870   -1.211819    1.592165
     31          1           0       10.325190   -1.364790    3.287922
     32          6           0       11.488967    0.416292    2.880515
     33          1           0       11.106781    0.973648    3.750923
     34          1           0       11.652823    1.126680    2.054182
     35          8           0       12.723078   -0.282297    3.214653
     36          6           0       13.792660    0.604610    3.638773
     37          1           0       13.512171    1.166846    4.544400
     38          1           0       14.654455   -0.031065    3.858817
     39          1           0       14.059414    1.320091    2.843868
     40          6           0       -3.703261    1.280956    0.186234
     41          1           0       -4.085750    1.826502   -0.687352
     42          1           0       -3.528942    1.988677    1.008292
     43          6           0       -4.697603    0.208007    0.614707
     44          1           0       -4.861910   -0.508689   -0.204625
     45          1           0       -4.314766   -0.339980    1.489325
     46          8           0       -5.929792    0.912721    0.942369
     47          6           0       -7.007779    0.033178    1.379851
     48          1           0       -7.261341   -0.691769    0.590680
     49          1           0       -6.713050   -0.521427    2.284361
     50          6           0       -8.205684    0.928083    1.677507
     51          1           0       -8.498682    1.483837    0.772752
     52          1           0       -7.951313    1.653228    2.466656
     53          8           0       -9.282613    0.048678    2.113426
     54          6           0      -10.515166    0.755891    2.441662
     55          1           0      -10.892624    1.305849    1.565328
     56          1           0      -10.345005    1.474133    3.259011
     57          6           0      -11.526257   -0.300314    2.873536
     58          1           0      -11.149233   -0.850796    3.750544
     59          1           0      -11.697361   -1.019025    2.055916
     60          8           0      -12.753349    0.414331    3.199485
     61          6           0      -13.831392   -0.456853    3.634618
     62          1           0      -13.556060   -1.010805    4.546908
     63          1           0      -14.686834    0.189852    3.847191
     64          1           0      -14.105465   -1.179263    2.848517
     65         50           0       -0.315895   -5.378712   -1.427728
     66          6           0        1.492899   -6.458716   -1.038752
     67          1           0        1.824148   -6.305696   -0.003882
     68          1           0        1.335745   -7.534254   -1.190828
     69          1           0        2.294670   -6.132400   -1.713052
     70          6           0       -0.959570   -5.650267   -3.451915
     71          1           0       -1.863901   -5.061514   -3.651067
     72          1           0       -0.179015   -5.324460   -4.150455
     73          1           0       -1.185027   -6.706183   -3.650016
     74          6           0       -1.872738   -5.968687   -0.080255
     75          1           0       -2.122543   -7.029122   -0.214969
     76          1           0       -1.559656   -5.814225    0.959693
     77          1           0       -2.778753   -5.375391   -0.256684
     78         50           0        0.353282    5.323243   -1.476845
     79          6           0        1.973158    5.879359   -0.190848
     80          1           0        2.859946    5.269031   -0.403380
     81          1           0        2.238381    6.934947   -0.333791
     82          1           0        1.698113    5.728917    0.860378
     83          6           0        0.922926    5.585018   -3.524560
     84          1           0        1.161620    6.636516   -3.730572
     85          1           0        1.806678    4.978338   -3.759015
     86          1           0        0.109256    5.275893   -4.192224
     87          6           0       -1.417235    6.439114   -1.019280
     88          1           0       -2.248382    6.136150   -1.668487
     89          1           0       -1.716664    6.284608    0.024984
     90          1           0       -1.241637    7.512171   -1.168695
 ---------------------------------------------------------------------

 The electronic state is 1-A.
 Alpha  occ. eigenvalues --  -19.16271 -19.16262 -19.14271 -19.14259 -19.13953
 Alpha  occ. eigenvalues --  -19.13945 -19.13756 -19.13751 -10.25333 -10.25310
 Alpha  occ. eigenvalues --  -10.24710 -10.24695 -10.24013 -10.23999 -10.23792
 Alpha  occ. eigenvalues --  -10.23781 -10.23694 -10.23685 -10.23515 -10.23509
 Alpha  occ. eigenvalues --  -10.23477 -10.23471 -10.23133 -10.23128 -10.21869
 Alpha  occ. eigenvalues --  -10.21819 -10.19900 -10.19898 -10.19705 -10.19703
 Alpha  occ. eigenvalues --  -10.16383 -10.16378 -10.16027 -10.16009 -10.15984
 Alpha  occ. eigenvalues --  -10.15982  -1.05502  -1.05436  -1.03024  -1.03015
 Alpha  occ. eigenvalues --   -1.02312  -1.02304  -1.01547  -1.01541  -0.87491
 Alpha  occ. eigenvalues --   -0.85618  -0.78956  -0.78898  -0.76655  -0.76532
 Alpha  occ. eigenvalues --   -0.75395  -0.73008  -0.72672  -0.71295  -0.70192
 Alpha  occ. eigenvalues --   -0.69742  -0.69385  -0.68270  -0.67618  -0.67610
 Alpha  occ. eigenvalues --   -0.67333  -0.67325  -0.66749  -0.66445  -0.62408
 Alpha  occ. eigenvalues --   -0.62159  -0.60978  -0.60967  -0.60622  -0.60612
 Alpha  occ. eigenvalues --   -0.58467  -0.55816  -0.54050  -0.53765  -0.53003
 Alpha  occ. eigenvalues --   -0.50637  -0.50626  -0.50154  -0.50085  -0.49446
 Alpha  occ. eigenvalues --   -0.49434  -0.47706  -0.47544  -0.47519  -0.47161
 Alpha  occ. eigenvalues --   -0.47072  -0.46179  -0.46154  -0.45246  -0.45118
 Alpha  occ. eigenvalues --   -0.44173  -0.44083  -0.44049  -0.43878  -0.43740
 Alpha  occ. eigenvalues --   -0.43645  -0.42337  -0.42289  -0.42034  -0.41735
 Alpha  occ. eigenvalues --   -0.40855  -0.40577  -0.40258  -0.40244  -0.40121
 Alpha  occ. eigenvalues --   -0.39882  -0.39759  -0.39713  -0.39684  -0.39348
 Alpha  occ. eigenvalues --   -0.39256  -0.39201  -0.39167  -0.38857  -0.38795
 Alpha  occ. eigenvalues --   -0.38787  -0.38560  -0.37419  -0.36704  -0.36156
 Alpha  occ. eigenvalues --   -0.36126  -0.36078  -0.35803  -0.34345  -0.33563
 Alpha  occ. eigenvalues --   -0.33489  -0.32347  -0.32080  -0.32065  -0.31528
 Alpha  occ. eigenvalues --   -0.31520  -0.31341  -0.31288  -0.31064  -0.31059
 Alpha  occ. eigenvalues --   -0.29318  -0.29317  -0.28366  -0.28337  -0.28247
 Alpha  occ. eigenvalues --   -0.27982  -0.26289  -0.26278  -0.25772  -0.25764
 Alpha  occ. eigenvalues --   -0.25519  -0.25201  -0.25194  -0.23369  -0.22383
 Alpha  occ. eigenvalues --   -0.18437
 Alpha virt. eigenvalues --   -0.04258  -0.00289   0.02178   0.02511   0.04706
 Alpha virt. eigenvalues --    0.04928   0.05074   0.05192   0.05461   0.05613
 Alpha virt. eigenvalues --    0.05975   0.07002   0.07289   0.07604   0.07755

 Mulliken charges:
               1
     1  C   -0.257018
     2  C    0.355158
     3  C   -0.203352
     4  C   -0.568305
     5  S    0.214499
     6  O   -0.317507
     7  H    0.246594
     8  C   -0.248278
     9  C    0.365455
    10  C   -0.204488
    11  C   -0.567626
    12  S    0.215273
    13  O   -0.316626
    14  H    0.246466
    15  C   -0.233733
    16  H    0.202727
    17  H    0.203295
    18  C   -0.223656
    19  H    0.194414
    20  H    0.195142
    21  O   -0.336057
    22  C   -0.208839
    23  H    0.190196
    24  H    0.190499
    25  C   -0.209161
    26  H    0.189036
    27  H    0.189025
    28  O   -0.339169
    29  C   -0.200224
    30  H    0.190456
    31  H    0.190466
    32  C   -0.223647
    33  H    0.188392
    34  H    0.188342
    35  O   -0.325177
    36  C   -0.440810
    37  H    0.191145
    38  H    0.223251
    39  H    0.191134
    40  C   -0.233453
    41  H    0.202424
    42  H    0.203266
    43  C   -0.223661
    44  H    0.194444
    45  H    0.195232
    46  O   -0.336063
    47  C   -0.208810
    48  H    0.190231
    49  H    0.190477
    50  C   -0.209172
    51  H    0.189033
    52  H    0.188999
    53  O   -0.339158
    54  C   -0.200213
    55  H    0.190436
    56  H    0.190457
    57  C   -0.223655
    58  H    0.188397
    59  H    0.188348
    60  O   -0.325182
    61  C   -0.440811
    62  H    0.191142
    63  H    0.223239
    64  H    0.191134
    65  Sn   1.199261
    66  C   -0.986243
    67  H    0.230764
    68  H    0.229257
    69  H    0.231490
    70  C   -0.968342
    71  H    0.232791
    72  H    0.232134
    73  H    0.222251
    74  C   -0.966349
    75  H    0.222200
    76  H    0.231292
    77  H    0.231980
    78  Sn   1.199924
    79  C   -0.967655
    80  H    0.231868
    81  H    0.222299
    82  H    0.231612
    83  C   -0.966854
    84  H    0.222152
    85  H    0.232626
    86  H    0.231815
    87  C   -0.986211
    88  H    0.231081
    89  H    0.231236
    90  H    0.229245
 Sum of Mulliken charges =  -0.00000

 Dipole moment (field-independent basis, Debye):
    X=              0.0428    Y=              0.0381    Z=              1.0344  Tot=              1.0359
 Quadrupole moment (field-independent basis, Debye-Ang):
   XX=           -236.9936   YY=           -250.0317   ZZ=           -274.6500
   XY=             26.3560   XZ=             -0.2137   YZ=              0.0126

 ESP charges:
               1
     1  C   -0.177967
     2  C    0.623083
     3  C   -0.334811
     4  C   -0.365301
     5  S   -0.028692
     6  O   -0.704927
     7  H    0.138998
     8  C    0.006060
     9  C    0.490275
    10  C   -0.282592
    11  C   -0.407769
    12  S   -0.046874
    13  O   -0.705644
    14  H    0.134097
    15  C    0.436043
    16  H    0.023980
    17  H    0.009056
    18  C    0.263164
    19  H    0.045534
    20  H    0.035165
    21  O   -0.768663
    22  C    0.356830
    23  H    0.005593
    24  H    0.008211
    25  C    0.423986
    26  H   -0.001144
    27  H    0.003495
    28  O   -0.730463
    29  C    0.185675
    30  H    0.038670
    31  H    0.035428
    32  C    0.325299
    33  H    0.033633
    34  H    0.034132
    35  O   -0.524955
    36  C   -0.106115
    37  H    0.084331
    38  H    0.135859
    39  H    0.086802
    40  C    0.623740
    41  H   -0.017675
    42  H   -0.026083
    43  C    0.138003
    44  H    0.057960
    45  H    0.053662
    46  O   -0.775434
    47  C    0.434513
    48  H   -0.003033
    49  H   -0.001353
    50  C    0.353403
    51  H    0.010958
    52  H    0.013854
    53  O   -0.733363
    54  C    0.280026
    55  H    0.023210
    56  H    0.021834
    57  C    0.206530
    58  H    0.057904
    59  H    0.057404
    60  O   -0.510449
    61  C   -0.074937
    62  H    0.079947
    63  H    0.124198
    64  H    0.082027
    65  Sn   1.196448
    66  C   -0.850692
    67  H    0.192599
    68  H    0.185133
    69  H    0.193964
    70  C   -0.787986
    71  H    0.185158
    72  H    0.168765
    73  H    0.165193
    74  C   -0.815386
    75  H    0.177728
    76  H    0.176919
    77  H    0.179993
    78  Sn   1.205529
    79  C   -0.830643
    80  H    0.185281
    81  H    0.180879
    82  H    0.181556
    83  C   -0.805622
    84  H    0.168720
    85  H    0.192643
    86  H    0.173411
    87  C   -0.812101
    88  H    0.182386
    89  H    0.182369
    90  H    0.173425
 Sum of ESP charges =   0.00000

 Normal termination of Gaussian 16 at Tue Mar  3 13:07:37 2020.
