 Gaussian 16, Revision A.03,
 Gaussian 16:  ES64L-G16RevA.03 25-Dec-2016

 -------------------------------------------
 #p opt=modredundant pop=MKUFF b3lyp/lanl2dz
 -------------------------------------------

 ---------------------
 O3G_1m_0sc_Sn_pop.gjf
 ---------------------
 Symbolic Z-matrix:
 Charge =  0 Multiplicity = 1

 SCF Done:  E(RB3LYP) =  -1725.42786324     A.U. after   15 cycles
 SCF Done:  E(RB3LYP) =  -1725.46126436     A.U. after   13 cycles
 SCF Done:  E(RB3LYP) =  -1725.47478691     A.U. after   14 cycles
 SCF Done:  E(RB3LYP) =  -1725.47673205     A.U. after   13 cycles
 SCF Done:  E(RB3LYP) =  -1725.47743293     A.U. after   11 cycles
 SCF Done:  E(RB3LYP) =  -1725.47761456     A.U. after   11 cycles
 SCF Done:  E(RB3LYP) =  -1725.47777982     A.U. after   11 cycles
 SCF Done:  E(RB3LYP) =  -1725.47783733     A.U. after   10 cycles
 SCF Done:  E(RB3LYP) =  -1725.47787560     A.U. after   10 cycles
 SCF Done:  E(RB3LYP) =  -1725.47789601     A.U. after   11 cycles
 SCF Done:  E(RB3LYP) =  -1725.47835945     A.U. after   10 cycles
 SCF Done:  E(RB3LYP) =  -1725.47836338     A.U. after   10 cycles
 SCF Done:  E(RB3LYP) =  -1725.47836469     A.U. after    9 cycles
 SCF Done:  E(RB3LYP) =  -1725.47836511     A.U. after    9 cycles
 SCF Done:  E(RB3LYP) =  -1725.47836524     A.U. after    9 cycles
 SCF Done:  E(RB3LYP) =  -1725.47836541     A.U. after    9 cycles
 SCF Done:  E(RB3LYP) =  -1725.47836549     A.U. after    7 cycles
 SCF Done:  E(RB3LYP) =  -1725.47836551     A.U. after    7 cycles
 SCF Done:  E(RB3LYP) =  -1725.47836552     A.U. after    6 cycles
 SCF Done:  E(RB3LYP) =  -1725.47836553     A.U. after    6 cycles
 Optimization completed on the basis of negligible forces.
    -- Stationary point found.

                         Standard orientation:
 ---------------------------------------------------------------------
 Center     Atomic      Atomic             Coordinates (Angstroms)
 Number     Number       Type             X           Y           Z
 ---------------------------------------------------------------------
      1          6           0        0.143678   -0.742084   -1.048434
      2          6           0        1.336039   -1.341728   -0.665265
      3          6           0        1.378597   -2.773924   -0.840970
      4          6           0        0.231848   -3.328812   -1.384178
      5         16           0       -0.978008   -2.019229   -1.708889
      6          8           0        2.373826   -0.560659   -0.156222
      7          1           0        2.238477   -3.373287   -0.561792
      8          6           0       -0.193199    0.663404   -1.107470
      9          6           0       -1.366145    1.295042   -0.716618
     10          6           0       -1.379054    2.724759   -0.913896
     11          6           0       -0.215890    3.247902   -1.454160
     12         16           0        0.972350    1.910343   -1.744064
     13          8           0       -2.414050    0.542523   -0.186306
     14          1           0       -2.228553    3.345712   -0.650595
     15          6           0        3.594488   -1.235340    0.280191
     16          1           0        4.067905   -1.761175   -0.560357
     17          1           0        3.372970   -1.955308    1.079988
     18          6           0        4.513943   -0.135668    0.798630
     19          1           0        4.722783    0.593920    0.001149
     20          1           0        4.041403    0.391165    1.641849
     21          8           0        5.736804   -0.803597    1.223986
     22          6           0        6.743369    0.105597    1.759800
     23          1           0        7.037408    0.848815    1.002300
     24          1           0        6.354747    0.638328    2.641721
     25          6           0        7.941989   -0.752569    2.148758
     26          1           0        8.330283   -1.285148    1.266215
     27          1           0        7.646658   -1.497084    2.904917
     28          8           0        8.946512    0.156349    2.685390
     29          6           0       10.171131   -0.513188    3.108547
     30          1           0       10.641098   -1.035674    2.260594
     31          1           0        9.957902   -1.249882    3.898932
     32          6           0       11.103492    0.570209    3.639004
     33          1           0       10.634026    1.092969    4.487912
     34          1           0       11.317310    1.307607    2.848531
     35          8           0       12.323423   -0.106707    4.058848
     36          6           0       13.328661    0.794082    4.595998
     37          1           0       12.957237    1.323088    5.488826
     38          1           0       14.185714    0.174049    4.872071
     39          1           0       13.642223    1.538389    3.845909
     40          6           0       -3.624881    1.245874    0.231907
     41          1           0       -4.088701    1.759096   -0.621687
     42          1           0       -3.393670    1.980872    1.015122
     43          6           0       -4.561786    0.172803    0.774239
     44          1           0       -4.782116   -0.571012   -0.006848
     45          1           0       -4.097644   -0.342530    1.629151
     46          8           0       -5.773976    0.869257    1.184107
     47          6           0       -6.795076   -0.011999    1.738778
     48          1           0       -7.100277   -0.766961    0.997484
     49          1           0       -6.415448   -0.531277    2.632556
     50          6           0       -7.980314    0.873216    2.107598
     51          1           0       -8.359513    1.392419    1.213211
     52          1           0       -7.673888    1.629335    2.847656
     53          8           0       -8.999431   -0.007873    2.662820
     54          6           0      -10.213566    0.689912    3.070232
     55          1           0      -10.674500    1.201605    2.210813
     56          1           0       -9.989272    1.439811    3.844985
     57          6           0      -11.163439   -0.367006    3.622586
     58          1           0      -10.702935   -0.879048    4.482858
     59          1           0      -11.388424   -1.117512    2.847702
     60          8           0      -12.372741    0.337954    4.026748
     61          6           0      -13.392632   -0.535245    4.581549
     62          1           0      -13.030426   -1.051167    5.485749
     63          1           0      -14.239957    0.103989    4.843498
     64          1           0      -13.717335   -1.290110    3.846912
     65         50           0       -0.157122   -5.388936   -1.771602
     66          6           0        1.620919   -6.444579   -1.211679
     67          1           0        1.842063   -6.299622   -0.146718
     68          1           0        1.498613   -7.520420   -1.391148
     69          1           0        2.481690   -6.096996   -1.796717
     70          6           0       -0.583041   -5.641422   -3.854815
     71          1           0       -1.470539   -5.062364   -4.139585
     72          1           0        0.260868   -5.295303   -4.464236
     73          1           0       -0.770788   -6.697471   -4.088319
     74          6           0       -1.834023   -6.020891   -0.598941
     75          1           0       -2.048240   -7.084165   -0.768050
     76          1           0       -1.633840   -5.871741    0.469247
     77          1           0       -2.727890   -5.442256   -0.863788
     78         50           0        0.212775    5.291883   -1.882898
     79          6           0        1.931624    5.898463   -0.758670
     80          1           0        2.805474    5.296158   -1.037303
     81          1           0        2.166179    6.954297   -0.946331
     82          1           0        1.753850    5.767092    0.315794
     83          6           0        0.596126    5.505234   -3.978836
     84          1           0        0.801649    6.553430   -4.231991
     85          1           0        1.463877    4.902394   -4.274824
     86          1           0       -0.268935    5.169386   -4.563856
     87          6           0       -1.525959    6.398592   -1.298774
     88          1           0       -2.406982    6.068354   -1.863394
     89          1           0       -1.729537    6.269086   -0.228360
     90          1           0       -1.379476    7.469172   -1.491148
 ---------------------------------------------------------------------

 The electronic state is 1-A.
 Alpha  occ. eigenvalues --  -19.16194 -19.16189 -19.14246 -19.14236 -19.13942
 Alpha  occ. eigenvalues --  -19.13935 -19.13752 -19.13746 -10.25383 -10.25366
 Alpha  occ. eigenvalues --  -10.24658 -10.24647 -10.23978 -10.23967 -10.23772
 Alpha  occ. eigenvalues --  -10.23762 -10.23681 -10.23673 -10.23508 -10.23502
 Alpha  occ. eigenvalues --  -10.23471 -10.23465 -10.23130 -10.23125 -10.21749
 Alpha  occ. eigenvalues --  -10.21699 -10.19993 -10.19985 -10.19730 -10.19729
 Alpha  occ. eigenvalues --  -10.16404 -10.16396 -10.16046 -10.16027 -10.16000
 Alpha  occ. eigenvalues --  -10.15996  -1.05445  -1.05377  -1.03007  -1.02998
 Alpha  occ. eigenvalues --   -1.02297  -1.02290  -1.01539  -1.01532  -0.87479
 Alpha  occ. eigenvalues --   -0.85624  -0.78925  -0.78882  -0.76637  -0.76501
 Alpha  occ. eigenvalues --   -0.75359  -0.72973  -0.72683  -0.71304  -0.70185
 Alpha  occ. eigenvalues --   -0.69757  -0.69401  -0.68265  -0.67638  -0.67627
 Alpha  occ. eigenvalues --   -0.67351  -0.67341  -0.66738  -0.66440  -0.62376
 Alpha  occ. eigenvalues --   -0.62116  -0.60959  -0.60950  -0.60613  -0.60604
 Alpha  occ. eigenvalues --   -0.58450  -0.55681  -0.54007  -0.53846  -0.53068
 Alpha  occ. eigenvalues --   -0.50613  -0.50603  -0.50138  -0.50074  -0.49425
 Alpha  occ. eigenvalues --   -0.49415  -0.47735  -0.47523  -0.47501  -0.47148
 Alpha  occ. eigenvalues --   -0.47066  -0.46162  -0.46142  -0.45218  -0.45126
 Alpha  occ. eigenvalues --   -0.44150  -0.44067  -0.44042  -0.43862  -0.43724
 Alpha  occ. eigenvalues --   -0.43641  -0.42331  -0.42277  -0.41940  -0.41671
 Alpha  occ. eigenvalues --   -0.40896  -0.40589  -0.40277  -0.40262  -0.40166
 Alpha  occ. eigenvalues --   -0.39895  -0.39773  -0.39707  -0.39657  -0.39366
 Alpha  occ. eigenvalues --   -0.39261  -0.39216  -0.39188  -0.38836  -0.38813
 Alpha  occ. eigenvalues --   -0.38802  -0.38617  -0.37260  -0.36722  -0.36153
 Alpha  occ. eigenvalues --   -0.36082  -0.36047  -0.35819  -0.34098  -0.33569
 Alpha  occ. eigenvalues --   -0.33393  -0.32642  -0.32063  -0.32038  -0.31514
 Alpha  occ. eigenvalues --   -0.31507  -0.31376  -0.31237  -0.31059  -0.31053
 Alpha  occ. eigenvalues --   -0.29445  -0.29389  -0.28363  -0.28351  -0.28225
 Alpha  occ. eigenvalues --   -0.27996  -0.26270  -0.26261  -0.25759  -0.25752
 Alpha  occ. eigenvalues --   -0.25193  -0.25187  -0.25110  -0.23433  -0.22175
 Alpha  occ. eigenvalues --   -0.18806
 Alpha virt. eigenvalues --   -0.04065  -0.00742   0.02270   0.02513   0.04616
 Alpha virt. eigenvalues --    0.04939   0.05035   0.05156   0.05396   0.05573
 Alpha virt. eigenvalues --    0.06010   0.06911   0.07322   0.07548   0.07765

 Mulliken charges:
               1
     1  C   -0.263231
     2  C    0.359714
     3  C   -0.201998
     4  C   -0.566913
     5  S    0.208690
     6  O   -0.311570
     7  H    0.246412
     8  C   -0.253456
     9  C    0.369420
    10  C   -0.203002
    11  C   -0.565990
    12  S    0.208086
    13  O   -0.310997
    14  H    0.246300
    15  C   -0.235093
    16  H    0.202260
    17  H    0.202866
    18  C   -0.223822
    19  H    0.194974
    20  H    0.194784
    21  O   -0.336114
    22  C   -0.208761
    23  H    0.190172
    24  H    0.190425
    25  C   -0.209202
    26  H    0.188975
    27  H    0.189011
    28  O   -0.339152
    29  C   -0.200211
    30  H    0.190468
    31  H    0.190389
    32  C   -0.223655
    33  H    0.188364
    34  H    0.188374
    35  O   -0.325181
    36  C   -0.440811
    37  H    0.191127
    38  H    0.223233
    39  H    0.191137
    40  C   -0.234731
    41  H    0.201978
    42  H    0.202945
    43  C   -0.223761
    44  H    0.194960
    45  H    0.194906
    46  O   -0.336128
    47  C   -0.208751
    48  H    0.190200
    49  H    0.190438
    50  C   -0.209210
    51  H    0.188973
    52  H    0.188983
    53  O   -0.339139
    54  C   -0.200203
    55  H    0.190441
    56  H    0.190387
    57  C   -0.223658
    58  H    0.188378
    59  H    0.188374
    60  O   -0.325190
    61  C   -0.440811
    62  H    0.191128
    63  H    0.223219
    64  H    0.191138
    65  Sn   1.199790
    66  C   -0.986243
    67  H    0.230981
    68  H    0.229351
    69  H    0.231415
    70  C   -0.967951
    71  H    0.233153
    72  H    0.232049
    73  H    0.222333
    74  C   -0.966838
    75  H    0.222304
    76  H    0.231450
    77  H    0.232461
    78  Sn   1.200354
    79  C   -0.967754
    80  H    0.232296
    81  H    0.222400
    82  H    0.231667
    83  C   -0.966890
    84  H    0.222280
    85  H    0.233001
    86  H    0.231888
    87  C   -0.986212
    88  H    0.231166
    89  H    0.231315
    90  H    0.229344
 Sum of Mulliken charges =  -0.00000

 Dipole moment (field-independent basis, Debye):
    X=              0.0457    Y=              0.0608    Z=              1.3009  Tot=              1.3031
 Quadrupole moment (field-independent basis, Debye-Ang):
   XX=           -241.4998   YY=           -249.0045   ZZ=           -271.9354
   XY=             25.0977   XZ=             -0.3926   YZ=             -0.0988

 ESP charges:
               1
     1  C   -0.242859
     2  C    0.764737
     3  C   -0.416020
     4  C   -0.372928
     5  S   -0.017513
     6  O   -0.768510
     7  H    0.163278
     8  C    0.010458
     9  C    0.544146
    10  C   -0.307796
    11  C   -0.440453
    12  S   -0.036360
    13  O   -0.748663
    14  H    0.143349
    15  C    0.446098
    16  H    0.011801
    17  H   -0.004446
    18  C    0.362113
    19  H    0.016346
    20  H    0.012818
    21  O   -0.786835
    22  C    0.350800
    23  H    0.005562
    24  H    0.007043
    25  C    0.427068
    26  H   -0.000804
    27  H    0.004113
    28  O   -0.732124
    29  C    0.185595
    30  H    0.033933
    31  H    0.032139
    32  C    0.367330
    33  H    0.022198
    34  H    0.021945
    35  O   -0.532337
    36  C   -0.114756
    37  H    0.087989
    38  H    0.136912
    39  H    0.088575
    40  C    0.662865
    41  H   -0.032635
    42  H   -0.043157
    43  C    0.199595
    44  H    0.041882
    45  H    0.039240
    46  O   -0.786405
    47  C    0.389176
    48  H    0.003303
    49  H    0.003979
    50  C    0.414087
    51  H   -0.001073
    52  H    0.000067
    53  O   -0.747280
    54  C    0.302783
    55  H    0.010567
    56  H    0.009680
    57  C    0.254933
    58  H    0.042673
    59  H    0.041841
    60  O   -0.514116
    61  C   -0.106426
    62  H    0.088828
    63  H    0.131019
    64  H    0.089471
    65  Sn   1.235968
    66  C   -0.875700
    67  H    0.199911
    68  H    0.188298
    69  H    0.198941
    70  C   -0.799552
    71  H    0.183606
    72  H    0.172700
    73  H    0.166040
    74  C   -0.830234
    75  H    0.178008
    76  H    0.179998
    77  H    0.184654
    78  Sn   1.263828
    79  C   -0.858658
    80  H    0.193540
    81  H    0.183679
    82  H    0.185957
    83  C   -0.808562
    84  H    0.164626
    85  H    0.189063
    86  H    0.174816
    87  C   -0.858962
    88  H    0.191707
    89  H    0.195418
    90  H    0.182065
 Sum of ESP charges =   0.00000

 Normal termination of Gaussian 16 at Tue Mar  3 13:22:25 2020.
