 Gaussian 16, Revision A.03,
 Gaussian 16:  ES64L-G16RevA.03 25-Dec-2016

 ------------------------
 #p opt b3lyp/6-311g(d,p)
 ------------------------

 -----------
 monomer.pdb
 -----------
 Symbolic Z-matrix:
 Charge =  0 Multiplicity = 1

 SCF Done:  E(RB3LYP) =  -2257.12682949     A.U. after   15 cycles
 SCF Done:  E(RB3LYP) =  -2257.17920169     A.U. after   12 cycles
 SCF Done:  E(RB3LYP) =  -2257.19792676     A.U. after   13 cycles
 SCF Done:  E(RB3LYP) =  -2257.21976621     A.U. after   15 cycles
 SCF Done:  E(RB3LYP) =  -2257.22601718     A.U. after   12 cycles
 SCF Done:  E(RB3LYP) =  -2257.23822319     A.U. after   13 cycles
 SCF Done:  E(RB3LYP) =  -2257.24375636     A.U. after   12 cycles
 SCF Done:  E(RB3LYP) =  -2257.25125136     A.U. after   12 cycles
 SCF Done:  E(RB3LYP) =  -2257.25712894     A.U. after   14 cycles
 SCF Done:  E(RB3LYP) =  -2257.25867849     A.U. after   12 cycles
 SCF Done:  E(RB3LYP) =  -2257.26644806     A.U. after    8 cycles
 SCF Done:  E(RB3LYP) =  -2257.26644872     A.U. after    9 cycles
 SCF Done:  E(RB3LYP) =  -2257.26644938     A.U. after    9 cycles
 SCF Done:  E(RB3LYP) =  -2257.26645004     A.U. after    9 cycles
 SCF Done:  E(RB3LYP) =  -2257.26645040     A.U. after    7 cycles
 SCF Done:  E(RB3LYP) =  -2257.26645074     A.U. after    9 cycles
 SCF Done:  E(RB3LYP) =  -2257.26645087     A.U. after    7 cycles
 SCF Done:  E(RB3LYP) =  -2257.26645092     A.U. after    7 cycles
 SCF Done:  E(RB3LYP) =  -2257.26645093     A.U. after    7 cycles
 SCF Done:  E(RB3LYP) =  -2257.26645094     A.U. after    6 cycles
 Optimization completed.
    -- Stationary point found.

                         Standard orientation:
 ---------------------------------------------------------------------
 Center     Atomic      Atomic             Coordinates (Angstroms)
 Number     Number       Type             X           Y           Z
 ---------------------------------------------------------------------
      1          6           0       -0.346053    0.347445    0.033413
      2          6           0       -1.687060    0.169931   -0.249942
      3          6           0       -2.437104    1.377400   -0.337035
      4          6           0       -1.664467    2.475656   -0.110585
      5         16           0       -0.009285    2.063742    0.209418
      6          8           0       -2.201643   -1.079222   -0.487435
      7          1           0       -3.490379    1.386529   -0.578388
      8          6           0        0.679836   -0.661668    0.160805
      9          6           0        2.018733   -0.484221    0.454859
     10          6           0        2.770381   -1.691725    0.531984
     11          6           0        2.001256   -2.788485    0.287189
     12         16           0        0.347124   -2.376572   -0.036881
     13          8           0        2.523728    0.763305    0.708840
     14          1           0        3.820893   -1.701302    0.785203
     15          6           0       -3.200292   -1.582929    0.416190
     16          1           0       -2.922874   -2.621723    0.621655
     17          1           0       -3.163534   -1.030165    1.359691
     18          6           0       -4.596014   -1.570239   -0.197114
     19          1           0       -5.230588   -2.273844    0.363849
     20          1           0       -4.524840   -1.922828   -1.228367
     21          8           0       -5.221867   -0.297471   -0.255913
     22          6           0       -5.807314    0.131763    0.962301
     23          1           0       -6.405804   -0.681600    1.397905
     24          1           0       -5.042900    0.410889    1.703215
     25          6           0       -6.671825    1.356440    0.694564
     26          1           0       -6.062659    2.125291    0.214668
     27          1           0       -7.022690    1.750199    1.661701
     28          8           0       -7.763034    1.135638   -0.177660
     29          6           0       -8.832033    0.388866    0.374318
     30          1           0       -8.557149   -0.660312    0.543096
     31          1           0       -9.153902    0.814634    1.336192
     32          6           0       -9.978456    0.442818   -0.620155
     33          1           0       -9.639314    0.051319   -1.590270
     34          1           0      -10.292450    1.486264   -0.769296
     35          8           0      -11.034730   -0.337805   -0.095327
     36          6           0      -12.167705   -0.369191   -0.938405
     37          1           0      -12.917442   -0.992065   -0.449582
     38          1           0      -12.584854    0.636391   -1.093309
     39          1           0      -11.928994   -0.801854   -1.920698
     40          6           0        3.594198    1.249801   -0.121544
     41          1           0        3.345098    2.292205   -0.343359
     42          1           0        3.614809    0.697574   -1.065896
     43          6           0        4.945373    1.217210    0.584483
     44          1           0        5.622619    1.917470    0.074044
     45          1           0        4.807477    1.561094    1.612167
     46          8           0        5.554909   -0.060848    0.672458
     47          6           0        6.208995   -0.495880   -0.514615
     48          1           0        6.687626    0.355648   -1.009649
     49          1           0        5.490240   -0.955988   -1.210345
     50          6           0        7.255254   -1.531332   -0.130889
     51          1           0        6.793705   -2.265433    0.536460
     52          1           0        7.592721   -2.060762   -1.032737
     53          8           0        8.356697   -0.971194    0.572892
     54          6           0        9.549675   -0.796854   -0.166906
     55          1           0        9.880544   -1.747205   -0.617068
     56          1           0       10.299963   -0.512811    0.574200
     57          6           0        9.484655    0.248840   -1.288319
     58          1           0       10.512013    0.404065   -1.658671
     59          1           0        8.889614   -0.121442   -2.126814
     60          8           0        8.890016    1.482629   -0.932497
     61          6           0        9.534000    2.166483    0.129943
     62          1           0        9.087197    3.159897    0.179490
     63          1           0       10.612087    2.274158   -0.057858
     64          1           0        9.382654    1.662208    1.090606
     65          1           0       -1.960116    3.513521   -0.116975
     66          1           0        2.298995   -3.825773    0.284445
 ---------------------------------------------------------------------

 The electronic state is 1-A.
 Alpha  occ. eigenvalues --  -88.86650 -88.86646 -19.13997 -19.13933 -19.12828
 Alpha  occ. eigenvalues --  -19.12683 -19.12209 -19.12170 -19.12120 -19.12065
 Alpha  occ. eigenvalues --  -10.22774 -10.22499 -10.22441 -10.22400 -10.22377
 Alpha  occ. eigenvalues --  -10.22358 -10.22249 -10.22182 -10.22148 -10.22063
 Alpha  occ. eigenvalues --  -10.21808 -10.21567 -10.21521 -10.21407 -10.21393
 Alpha  occ. eigenvalues --  -10.21253 -10.20163 -10.20093 -10.19000 -10.18974
 Alpha  occ. eigenvalues --  -10.16502 -10.16470  -7.95230  -7.95225  -5.91539
 Alpha  occ. eigenvalues --   -5.91533  -5.91158  -5.91152  -5.90803  -5.90798
 Alpha  occ. eigenvalues --   -1.05865  -1.05692  -1.04822  -1.04737  -1.03857
 Alpha  occ. eigenvalues --   -1.03658  -1.03057  -1.02628  -0.88253  -0.86446
 Alpha  occ. eigenvalues --   -0.78921  -0.78535  -0.76785  -0.76531  -0.75753
 Alpha  occ. eigenvalues --   -0.74095  -0.73670  -0.71509  -0.70797  -0.69381
 Alpha  occ. eigenvalues --   -0.68646  -0.67689  -0.64388  -0.63670  -0.61825
 Alpha  occ. eigenvalues --   -0.61414  -0.59562  -0.59046  -0.58751  -0.57765
 Alpha  occ. eigenvalues --   -0.54894  -0.54403  -0.52718  -0.51956  -0.51911
 Alpha  occ. eigenvalues --   -0.51047  -0.50884  -0.49766  -0.49262  -0.49098
 Alpha  occ. eigenvalues --   -0.48678  -0.47822  -0.47739  -0.47182  -0.46640
 Alpha  occ. eigenvalues --   -0.46324  -0.46078  -0.45955  -0.45434  -0.44759
 Alpha  occ. eigenvalues --   -0.44544  -0.44299  -0.43940  -0.43660  -0.43239
 Alpha  occ. eigenvalues --   -0.42906  -0.41659  -0.41292  -0.40665  -0.40276
 Alpha  occ. eigenvalues --   -0.39649  -0.39331  -0.38655  -0.37782  -0.37578
 Alpha  occ. eigenvalues --   -0.36850  -0.36809  -0.36429  -0.36146  -0.35224
 Alpha  occ. eigenvalues --   -0.34743  -0.34222  -0.33507  -0.33438  -0.32870
 Alpha  occ. eigenvalues --   -0.32527  -0.32404  -0.31693  -0.31462  -0.29617
 Alpha  occ. eigenvalues --   -0.29433  -0.27713  -0.27206  -0.26568  -0.26293
 Alpha  occ. eigenvalues --   -0.26162  -0.25926  -0.25012  -0.23750  -0.23431
 Alpha  occ. eigenvalues --   -0.19047
 Alpha virt. eigenvalues --   -0.03725   0.01411   0.02753   0.03001   0.03359
 Alpha virt. eigenvalues --    0.03782   0.04749   0.04993   0.05206   0.05245
 Alpha virt. eigenvalues --    0.05899   0.06232   0.06400   0.06995   0.07299

 Mulliken charges:
               1
     1  C   -0.204516
     2  C    0.176740
     3  C   -0.060148
     4  C   -0.312264
     5  S    0.300927
     6  O   -0.386785
     7  H    0.126115
     8  C   -0.211214
     9  C    0.182908
    10  C   -0.061675
    11  C   -0.311442
    12  S    0.298631
    13  O   -0.386921
    14  H    0.129177
    15  C   -0.032599
    16  H    0.118443
    17  H    0.111769
    18  C   -0.011704
    19  H    0.091915
    20  H    0.127212
    21  O   -0.367048
    22  C   -0.018489
    23  H    0.094583
    24  H    0.098452
    25  C   -0.014865
    26  H    0.120596
    27  H    0.091918
    28  O   -0.368513
    29  C   -0.004279
    30  H    0.099335
    31  H    0.090506
    32  C   -0.008665
    33  H    0.099055
    34  H    0.093881
    35  O   -0.371794
    36  C   -0.101656
    37  H    0.114390
    38  H    0.089055
    39  H    0.089536
    40  C   -0.036497
    41  H    0.117646
    42  H    0.113647
    43  C   -0.016193
    44  H    0.105623
    45  H    0.122946
    46  O   -0.375761
    47  C   -0.003949
    48  H    0.120020
    49  H    0.089626
    50  C   -0.032762
    51  H    0.120156
    52  H    0.088761
    53  O   -0.357267
    54  C   -0.045926
    55  H    0.100103
    56  H    0.119005
    57  C   -0.045896
    58  H    0.101505
    59  H    0.112679
    60  O   -0.359542
    61  C   -0.119140
    62  H    0.115541
    63  H    0.086480
    64  H    0.117891
    65  H    0.125752
    66  H    0.124985
 Sum of Mulliken charges =  -0.00000

 Dipole moment (field-independent basis, Debye):
    X=              1.6680    Y=             -0.3383    Z=             -0.4453  Tot=              1.7593
 Quadrupole moment (field-independent basis, Debye-Ang):
   XX=           -148.0503   YY=           -194.2256   ZZ=           -212.4422
   XY=              1.4391   XZ=            -14.3003   YZ=              4.1741

 Normal termination of Gaussian 16 at Fri Mar 13 15:24:17 2020.
