 Gaussian 16, Revision A.03,
 Gaussian 16:  ES64L-G16RevA.03 25-Dec-2016

 -------------------------
 #p opt wb97xd/6-311g(d,p)
 -------------------------

 ------------------
 monomer_wb97xd.pdb
 ------------------
 Symbolic Z-matrix:
 Charge =  0 Multiplicity = 1

 SCF Done:  E(RwB97XD) =  -2256.75949731     A.U. after   15 cycles
 SCF Done:  E(RwB97XD) =  -2256.75978654     A.U. after   12 cycles
 SCF Done:  E(RwB97XD) =  -2256.76295499     A.U. after   13 cycles
 SCF Done:  E(RwB97XD) =  -2256.76281753     A.U. after   12 cycles
 SCF Done:  E(RwB97XD) =  -2256.76426110     A.U. after   12 cycles
 SCF Done:  E(RwB97XD) =  -2256.76497696     A.U. after   13 cycles
 SCF Done:  E(RwB97XD) =  -2256.76477493     A.U. after   13 cycles
 SCF Done:  E(RwB97XD) =  -2256.76562002     A.U. after   13 cycles
 SCF Done:  E(RwB97XD) =  -2256.76604271     A.U. after   11 cycles
 SCF Done:  E(RwB97XD) =  -2256.76614108     A.U. after   12 cycles
 SCF Done:  E(RwB97XD) =  -2256.76666953     A.U. after   10 cycles
 SCF Done:  E(RwB97XD) =  -2256.76667156     A.U. after   10 cycles
 SCF Done:  E(RwB97XD) =  -2256.76667301     A.U. after    9 cycles
 SCF Done:  E(RwB97XD) =  -2256.76667335     A.U. after   10 cycles
 SCF Done:  E(RwB97XD) =  -2256.76667317     A.U. after    9 cycles
 SCF Done:  E(RwB97XD) =  -2256.76667372     A.U. after    8 cycles
 SCF Done:  E(RwB97XD) =  -2256.76667375     A.U. after    7 cycles
 SCF Done:  E(RwB97XD) =  -2256.76667379     A.U. after    7 cycles
 SCF Done:  E(RwB97XD) =  -2256.76667374     A.U. after    6 cycles
 SCF Done:  E(RwB97XD) =  -2256.76667371     A.U. after    6 cycles
 Optimization completed.
    -- Stationary point found.

                         Standard orientation:
 ---------------------------------------------------------------------
 Center     Atomic      Atomic             Coordinates (Angstroms)
 Number     Number       Type             X           Y           Z
 ---------------------------------------------------------------------
      1          6           0       -0.610965    1.044302    1.059162
      2          6           0       -1.798284    1.677527    1.337458
      3          6           0       -2.521734    1.103702    2.419018
      4          6           0       -1.884477    0.027347    2.942761
      5         16           0       -0.406849   -0.315323    2.125341
      6          8           0       -2.242858    2.777031    0.658786
      7          1           0       -3.483144    1.474995    2.740471
      8          6           0        0.403468    1.426173    0.092083
      9          6           0        1.422520    0.655408   -0.414246
     10          6           0        2.268538    1.343488   -1.330115
     11          6           0        1.889186    2.635800   -1.495781
     12         16           0        0.502009    3.038196   -0.558115
     13          8           0        1.556679   -0.660274   -0.087046
     14          1           0        3.099317    0.859669   -1.823790
     15          6           0       -2.808964    2.515861   -0.624857
     16          1           0       -2.718201    3.445674   -1.190861
     17          1           0       -2.220938    1.751522   -1.144145
     18          6           0       -4.278845    2.133691   -0.549718
     19          1           0       -4.656134    2.035732   -1.581860
     20          1           0       -4.834295    2.933854   -0.056688
     21          8           0       -4.552124    0.971014    0.189822
     22          6           0       -4.032225   -0.218127   -0.354607
     23          1           0       -4.301583   -0.296641   -1.419450
     24          1           0       -2.935205   -0.252626   -0.286401
     25          6           0       -4.571486   -1.393263    0.440047
     26          1           0       -4.221724   -1.310051    1.470274
     27          1           0       -4.155013   -2.316071    0.004352
     28          8           0       -5.972406   -1.468197    0.515516
     29          6           0       -6.622770   -1.574443   -0.724608
     30          1           0       -6.580870   -0.631873   -1.285837
     31          1           0       -6.171094   -2.363069   -1.345698
     32          6           0       -8.071110   -1.913902   -0.445000
     33          1           0       -8.504401   -1.143170    0.209534
     34          1           0       -8.131803   -2.877099    0.083331
     35          8           0       -8.744487   -1.969715   -1.676661
     36          6           0      -10.105687   -2.274751   -1.532914
     37          1           0      -10.544262   -2.294964   -2.530801
     38          1           0      -10.251552   -3.256552   -1.059087
     39          1           0      -10.627085   -1.517818   -0.928966
     40          6           0        2.674870   -1.016154    0.727082
     41          1           0        2.311575   -1.784230    1.416075
     42          1           0        2.989236   -0.152939    1.324319
     43          6           0        3.832405   -1.599449   -0.064859
     44          1           0        4.526231   -2.082372    0.638844
     45          1           0        3.445273   -2.356845   -0.749605
     46          8           0        4.539486   -0.677200   -0.860804
     47          6           0        5.304394    0.251598   -0.127036
     48          1           0        5.688429   -0.220785    0.782394
     49          1           0        4.693872    1.120518    0.165167
     50          6           0        6.436863    0.747149   -1.008862
     51          1           0        6.005196    1.212813   -1.899021
     52          1           0        7.004673    1.518073   -0.465875
     53          8           0        7.287037   -0.271434   -1.479711
     54          6           0        8.414905   -0.574431   -0.701607
     55          1           0        9.031214    0.322219   -0.526051
     56          1           0        9.004133   -1.256375   -1.318830
     57          6           0        8.127514   -1.217867    0.660576
     58          1           0        9.073951   -1.649724    1.026231
     59          1           0        7.814289   -0.463373    1.386693
     60          8           0        7.106643   -2.182754    0.659896
     61          6           0        7.255716   -3.196900   -0.307828
     62          1           0        6.490105   -3.944512   -0.098887
     63          1           0        8.242903   -3.676151   -0.237710
     64          1           0        7.105510   -2.806440   -1.319400
     65          1           0       -2.211061   -0.613575    3.747493
     66          1           0        2.333132    3.381898   -2.137131
 ---------------------------------------------------------------------

 The electronic state is 1-A.
 Alpha  occ. eigenvalues --  -89.04110 -89.04057 -19.26579 -19.26541 -19.25263
 Alpha  occ. eigenvalues --  -19.24960 -19.24830 -19.24716 -19.24196 -19.23901
 Alpha  occ. eigenvalues --  -10.34074 -10.33918 -10.33712 -10.33678 -10.33657
 Alpha  occ. eigenvalues --  -10.33591 -10.33374 -10.33110 -10.32764 -10.32704
 Alpha  occ. eigenvalues --  -10.32542 -10.32322 -10.32216 -10.32140 -10.32090
 Alpha  occ. eigenvalues --  -10.32018 -10.32000 -10.31972 -10.31085 -10.30899
 Alpha  occ. eigenvalues --  -10.28283 -10.28224  -8.08178  -8.08126  -6.03017
 Alpha  occ. eigenvalues --   -6.02967  -6.02629  -6.02582  -6.02271  -6.02215
 Alpha  occ. eigenvalues --   -1.16698  -1.16615  -1.15797  -1.14848  -1.14319
 Alpha  occ. eigenvalues --   -1.14044  -1.13403  -1.12980  -0.99426  -0.97627
 Alpha  occ. eigenvalues --   -0.88583  -0.88259  -0.86883  -0.86327  -0.86078
 Alpha  occ. eigenvalues --   -0.84197  -0.83318  -0.81695  -0.80733  -0.79426
 Alpha  occ. eigenvalues --   -0.78553  -0.77003  -0.74074  -0.72944  -0.70961
 Alpha  occ. eigenvalues --   -0.70697  -0.68784  -0.68050  -0.67576  -0.67532
 Alpha  occ. eigenvalues --   -0.64106  -0.63234  -0.62056  -0.61174  -0.60748
 Alpha  occ. eigenvalues --   -0.60347  -0.59382  -0.58737  -0.58174  -0.57831
 Alpha  occ. eigenvalues --   -0.57582  -0.56790  -0.56632  -0.56219  -0.55281
 Alpha  occ. eigenvalues --   -0.55154  -0.54783  -0.54485  -0.54095  -0.53774
 Alpha  occ. eigenvalues --   -0.53136  -0.52383  -0.52238  -0.52103  -0.51682
 Alpha  occ. eigenvalues --   -0.51669  -0.50203  -0.49571  -0.48851  -0.48582
 Alpha  occ. eigenvalues --   -0.48023  -0.47664  -0.47152  -0.46284  -0.45943
 Alpha  occ. eigenvalues --   -0.45650  -0.44591  -0.44256  -0.43702  -0.43635
 Alpha  occ. eigenvalues --   -0.43390  -0.42282  -0.42039  -0.41556  -0.41211
 Alpha  occ. eigenvalues --   -0.40756  -0.40258  -0.39608  -0.38637  -0.37644
 Alpha  occ. eigenvalues --   -0.37538  -0.36099  -0.35232  -0.34239  -0.34041
 Alpha  occ. eigenvalues --   -0.33945  -0.33402  -0.33157  -0.31743  -0.31156
 Alpha  occ. eigenvalues --   -0.27111
 Alpha virt. eigenvalues --    0.02416   0.08165   0.09894   0.09920   0.10961
 Alpha virt. eigenvalues --    0.11994   0.12573   0.12719   0.13000   0.13201
 Alpha virt. eigenvalues --    0.13390   0.13903   0.14223   0.14684   0.14975

 Mulliken charges:
               1
     1  C   -0.203120
     2  C    0.165747
     3  C   -0.044174
     4  C   -0.325544
     5  S    0.304661
     6  O   -0.368533
     7  H    0.124884
     8  C   -0.250896
     9  C    0.186963
    10  C   -0.096343
    11  C   -0.305545
    12  S    0.301977
    13  O   -0.368554
    14  H    0.149711
    15  C   -0.114639
    16  H    0.137036
    17  H    0.142131
    18  C   -0.024743
    19  H    0.105013
    20  H    0.131206
    21  O   -0.351222
    22  C   -0.085337
    23  H    0.107025
    24  H    0.137343
    25  C   -0.026147
    26  H    0.130556
    27  H    0.105121
    28  O   -0.361083
    29  C   -0.031932
    30  H    0.114165
    31  H    0.098198
    32  C   -0.032325
    33  H    0.107606
    34  H    0.100968
    35  O   -0.364047
    36  C   -0.126123
    37  H    0.122406
    38  H    0.094687
    39  H    0.095298
    40  C   -0.089507
    41  H    0.135628
    42  H    0.126680
    43  C   -0.042330
    44  H    0.131943
    45  H    0.130092
    46  O   -0.361616
    47  C   -0.044759
    48  H    0.118252
    49  H    0.112899
    50  C   -0.052270
    51  H    0.128681
    52  H    0.098501
    53  O   -0.343053
    54  C   -0.080572
    55  H    0.115508
    56  H    0.134502
    57  C   -0.079789
    58  H    0.116993
    59  H    0.123651
    60  O   -0.358067
    61  C   -0.156330
    62  H    0.123823
    63  H    0.097682
    64  H    0.138494
    65  H    0.147025
    66  H    0.145542
 Sum of Mulliken charges =  -0.00000

 Dipole moment (field-independent basis, Debye):
    X=              3.1592    Y=             -0.6220    Z=             -0.1065  Tot=              3.2217
 Quadrupole moment (field-independent basis, Debye-Ang):
   XX=           -164.0540   YY=           -198.6475   ZZ=           -208.5790
   XY=              1.5428   XZ=              8.0934   YZ=             -8.7228

 Normal termination of Gaussian 16 at Fri Mar 13 21:07:33 2020.
