 Gaussian 16, Revision A.03,
 Gaussian 16:  ES64L-G16RevA.03 25-Dec-2016

 -------------------------------------------------------
 # opt=modredundant b3lyp/6-311+g(d,p) geom=connectivity
 -------------------------------------------------------

 -------------------
 Title Card Required
 -------------------
 Symbolic Z-matrix:
 Charge =  0 Multiplicity = 1

 SCF Done:  E(RB3LYP) =  -1255.42923307     A.U. after   14 cycles
 SCF Done:  E(RB3LYP) =  -1255.43229244     A.U. after   13 cycles
 SCF Done:  E(RB3LYP) =  -1255.43244541     A.U. after   12 cycles
 SCF Done:  E(RB3LYP) =  -1255.43245654     A.U. after   10 cycles
 SCF Done:  E(RB3LYP) =  -1255.43245710     A.U. after    9 cycles
 Optimization completed.
    -- Stationary point found.
 SCF Done:  E(RB3LYP) =  -1255.43249117     A.U. after   10 cycles
 SCF Done:  E(RB3LYP) =  -1255.43249148     A.U. after    9 cycles
 Optimization completed.
 SCF Done:  E(RB3LYP) =  -1255.43251884     A.U. after   10 cycles
 SCF Done:  E(RB3LYP) =  -1255.43251911     A.U. after    9 cycles
 SCF Done:  E(RB3LYP) =  -1255.43253973     A.U. after   10 cycles
 SCF Done:  E(RB3LYP) =  -1255.43213927     A.U. after    9 cycles
 SCF Done:  E(RB3LYP) =  -1255.43206163     A.U. after   10 cycles
 SCF Done:  E(RB3LYP) =  -1255.43206186     A.U. after    9 cycles
 SCF Done:  E(RB3LYP) =  -1255.43197781     A.U. after   10 cycles
 SCF Done:  E(RB3LYP) =  -1255.43188761     A.U. after   10 cycles
 SCF Done:  E(RB3LYP) =  -1255.43179101     A.U. after   10 cycles
 SCF Done:  E(RB3LYP) =  -1255.43168805     A.U. after   10 cycles
 SCF Done:  E(RB3LYP) =  -1255.43157874     A.U. after   10 cycles
 SCF Done:  E(RB3LYP) =  -1255.43146310     A.U. after   10 cycles
    -- Stationary point found.
 SCF Done:  E(RB3LYP) =  -1255.43134114     A.U. after   10 cycles
 Optimization completed.
    -- Stationary point found.

                         Standard orientation:
 ---------------------------------------------------------------------
 Center     Atomic      Atomic             Coordinates (Angstroms)
 Number     Number       Type             X           Y           Z
 ---------------------------------------------------------------------
      1          6           0        0.719344    0.007248   -0.000147
      2          6           0        1.562984   -1.085634   -0.000377
      3          6           0        2.945535   -0.726547   -0.000020
      4          6           0        3.147480    0.620519    0.000468
      5         16           0        1.658904    1.495100    0.000372
      6          1           0        3.748324   -1.455209   -0.000236
      7          1           0        4.085166    1.154204    0.000738
      8          6           0       -0.727608    0.005071   -0.000137
      9          6           0       -1.591735    1.082059   -0.000263
     10         16           0       -1.663951   -1.486783    0.000272
     11          6           0       -2.970002    0.731267    0.000071
     12          6           0       -3.158856   -0.620174    0.000429
     13          1           0       -3.775420    1.455848   -0.000043
     14          1           0       -4.092180   -1.161418    0.000665
     15          8           0        1.171565   -2.396608   -0.001050
     16          8           0       -1.115244    2.366833   -0.000838
     17          1           0        1.950773   -2.959423    0.001959
     18          1           0       -1.849338    2.988287    0.001568
 ---------------------------------------------------------------------

 The electronic state is 1-A.
 Alpha  occ. eigenvalues --  -88.87500 -88.87493 -19.16441 -19.16404 -10.23891
 Alpha  occ. eigenvalues --  -10.23815 -10.20980 -10.20828 -10.20204 -10.20094
 Alpha  occ. eigenvalues --  -10.18318 -10.18155  -7.96066  -7.96061  -5.92387
 Alpha  occ. eigenvalues --   -5.92376  -5.91991  -5.91986  -5.91621  -5.91619
 Alpha  occ. eigenvalues --   -1.07481  -1.07340  -0.89196  -0.87442  -0.77256
 Alpha  occ. eigenvalues --   -0.73738  -0.72911  -0.70876  -0.61052  -0.60527
 Alpha  occ. eigenvalues --   -0.59272  -0.55790  -0.53674  -0.49131  -0.48178
 Alpha  occ. eigenvalues --   -0.47180  -0.43553  -0.43448  -0.42963  -0.41493
 Alpha  occ. eigenvalues --   -0.38398  -0.38151  -0.37307  -0.35397  -0.35088
 Alpha  occ. eigenvalues --   -0.34616  -0.33656  -0.28139  -0.24275  -0.23998
 Alpha  occ. eigenvalues --   -0.19283
 Alpha virt. eigenvalues --   -0.04160  -0.01641  -0.00651   0.00020   0.00734
 Alpha virt. eigenvalues --    0.00816   0.02964   0.03020   0.03972   0.04066
 Alpha virt. eigenvalues --    0.04626   0.05494   0.05757   0.05800   0.06315

 Mulliken charges:
               1
     1  C    0.380525
     2  C    0.056954
     3  C   -0.356058
     4  C   -0.190947
     5  S   -0.287516
     6  H    0.110959
     7  H    0.157551
     8  C    0.423231
     9  C    0.182540
    10  S   -0.310644
    11  C   -0.333649
    12  C   -0.181024
    13  H    0.113775
    14  H    0.158863
    15  O   -0.218272
    16  O   -0.224107
    17  H    0.257276
    18  H    0.260543
 Sum of Mulliken charges =  -0.00000

 Dipole moment (field-independent basis, Debye):
    X=             -0.0004    Y=              0.1452    Z=              0.0087  Tot=              0.1455
 Quadrupole moment (field-independent basis, Debye-Ang):
   XX=            -63.8880   YY=            -73.8327   ZZ=            -89.6090
   XY=            -10.0932   XZ=              0.0021   YZ=             -0.0029

 Normal termination of Gaussian 16 at Fri Feb  7 00:01:08 2020.
