 Gaussian 16, Revision A.03,
 Gaussian 16:  ES64L-G16RevA.03 25-Dec-2016

 -------------------------------------------------------
 # opt=modredundant b3lyp/6-311+g(d,p) geom=connectivity
 -------------------------------------------------------

 -------------------
 Title Card Required
 -------------------
 Symbolic Z-matrix:
 Charge =  0 Multiplicity = 1

 SCF Done:  E(RB3LYP) =  -1334.05172732     A.U. after   14 cycles
 Optimization completed.
    -- Stationary point found.
 SCF Done:  E(RB3LYP) =  -1334.05172383     A.U. after    9 cycles
 SCF Done:  E(RB3LYP) =  -1334.05172414     A.U. after    9 cycles
 Optimization completed.
 SCF Done:  E(RB3LYP) =  -1334.05171268     A.U. after    9 cycles
 SCF Done:  E(RB3LYP) =  -1334.05171296     A.U. after    8 cycles
 SCF Done:  E(RB3LYP) =  -1334.05169394     A.U. after    9 cycles
 SCF Done:  E(RB3LYP) =  -1334.05169422     A.U. after    8 cycles
 SCF Done:  E(RB3LYP) =  -1334.05166772     A.U. after    9 cycles
 SCF Done:  E(RB3LYP) =  -1334.05166800     A.U. after    9 cycles
 SCF Done:  E(RB3LYP) =  -1334.05163404     A.U. after    9 cycles
 SCF Done:  E(RB3LYP) =  -1334.05009306     A.U. after    9 cycles
 SCF Done:  E(RB3LYP) =  -1334.05009338     A.U. after    8 cycles
 SCF Done:  E(RB3LYP) =  -1334.04993487     A.U. after    9 cycles
 SCF Done:  E(RB3LYP) =  -1334.04993519     A.U. after    8 cycles
 SCF Done:  E(RB3LYP) =  -1334.04976948     A.U. after    9 cycles
 SCF Done:  E(RB3LYP) =  -1334.04976981     A.U. after    8 cycles
 SCF Done:  E(RB3LYP) =  -1334.04959690     A.U. after    9 cycles
 SCF Done:  E(RB3LYP) =  -1334.04959723     A.U. after    8 cycles
    -- Stationary point found.
 SCF Done:  E(RB3LYP) =  -1334.04941714     A.U. after    9 cycles
 SCF Done:  E(RB3LYP) =  -1334.04941748     A.U. after    8 cycles
 Optimization completed.
    -- Stationary point found.

                         Standard orientation:
 ---------------------------------------------------------------------
 Center     Atomic      Atomic             Coordinates (Angstroms)
 Number     Number       Type             X           Y           Z
 ---------------------------------------------------------------------
      1          6           0       -0.581673   -0.407699   -0.000012
      2          6           0       -1.895415    0.034019   -0.000014
      3          6           0       -2.832241   -1.052440   -0.000012
      4          6           0       -2.235651   -2.277800   -0.000008
      5         16           0       -0.515516   -2.160898   -0.000010
      6          1           0       -3.905050   -0.927917   -0.000013
      7          1           0       -2.710300   -3.246806   -0.000006
      8          6           0        0.610613    0.411391   -0.000012
      9          6           0        1.935841    0.006218   -0.000008
     10         16           0        0.540437    2.168233   -0.000013
     11          6           0        2.875078    1.077279   -0.000004
     12          6           0        2.262218    2.298198   -0.000006
     13          1           0        3.947992    0.950993   -0.000001
     14          1           0        2.726213    3.272295   -0.000004
     15          8           0       -2.296015    1.334104   -0.000025
     16          8           0        2.231485   -1.325322   -0.000014
     17          6           0        3.601583   -1.704591    0.000051
     18          1           0        4.114954   -1.337383    0.895211
     19          1           0        3.611162   -2.793381    0.000061
     20          1           0        4.115034   -1.337401   -0.895071
     21          6           0       -3.685779    1.625581    0.000066
     22          1           0       -4.176097    1.229526    0.895434
     23          1           0       -3.757633    2.711968    0.000080
     24          1           0       -4.176211    1.229544   -0.895249
 ---------------------------------------------------------------------

 The electronic state is 1-A.
 Alpha  occ. eigenvalues --  -88.87113 -88.87104 -19.15885 -19.15790 -10.23393
 Alpha  occ. eigenvalues --  -10.23223 -10.23082 -10.22955 -10.20550 -10.20370
 Alpha  occ. eigenvalues --  -10.19636 -10.19447 -10.17774 -10.17477  -7.95681
 Alpha  occ. eigenvalues --   -7.95672  -5.91996  -5.91981  -5.91603  -5.91595
 Alpha  occ. eigenvalues --   -5.91242  -5.91241  -1.07451  -1.07298  -0.88852
 Alpha  occ. eigenvalues --   -0.87013  -0.77115  -0.75553  -0.74114  -0.71716
 Alpha  occ. eigenvalues --   -0.69596  -0.67485  -0.59655  -0.58310  -0.55286
 Alpha  occ. eigenvalues --   -0.55233  -0.53790  -0.48338  -0.47788  -0.47540
 Alpha  occ. eigenvalues --   -0.47308  -0.45888  -0.44413  -0.44118  -0.41590
 Alpha  occ. eigenvalues --   -0.40692  -0.40545  -0.37922  -0.37649  -0.36226
 Alpha  occ. eigenvalues --   -0.34931  -0.33285  -0.32748  -0.32684  -0.32662
 Alpha  occ. eigenvalues --   -0.27480  -0.23811  -0.23466  -0.18507
 Alpha virt. eigenvalues --   -0.03930  -0.00066   0.00341   0.00612   0.01012
 Alpha virt. eigenvalues --    0.01284   0.02133   0.02902   0.02979   0.03628
 Alpha virt. eigenvalues --    0.03946   0.05039   0.05082   0.05254   0.05732

 Mulliken charges:
               1
     1  C    0.692348
     2  C   -0.185621
     3  C   -0.486250
     4  C   -0.195832
     5  S   -0.267432
     6  H    0.125768
     7  H    0.153350
     8  C    0.811672
     9  C   -0.120273
    10  S   -0.287431
    11  C   -0.469125
    12  C   -0.208729
    13  H    0.127064
    14  H    0.155694
    15  O   -0.131548
    16  O   -0.126145
    17  C   -0.236157
    18  H    0.141527
    19  H    0.161576
    20  H    0.141524
    21  C   -0.245497
    22  H    0.142863
    23  H    0.163796
    24  H    0.142859
 Sum of Mulliken charges =  -0.00000

 Dipole moment (field-independent basis, Debye):
    X=              0.0023    Y=             -0.0815    Z=              0.0002  Tot=              0.0815
 Quadrupole moment (field-independent basis, Debye-Ang):
   XX=            -70.7427   YY=            -90.5928   ZZ=           -102.0068
   XY=             -2.9358   XZ=             -0.0001   YZ=              0.0001

 Normal termination of Gaussian 16 at Fri Feb  7 00:50:16 2020.
