 Gaussian 16, Revision A.03,
 Gaussian 16:  ES64L-G16RevA.03 25-Dec-2016

 --------------------------------------------------------
 # opt=modredundant wb97xd/6-311+g(d,p) geom=connectivity
 --------------------------------------------------------

 -------------------
 Title Card Required
 -------------------
 Symbolic Z-matrix:
 Charge =  0 Multiplicity = 1

 SCF Done:  E(RwB97XD) =  -1255.23037867     A.U. after   15 cycles
 SCF Done:  E(RwB97XD) =  -1255.23426850     A.U. after   14 cycles
 SCF Done:  E(RwB97XD) =  -1255.23442517     A.U. after   12 cycles
 SCF Done:  E(RwB97XD) =  -1255.23443251     A.U. after   12 cycles
 SCF Done:  E(RwB97XD) =  -1255.23443303     A.U. after   10 cycles
 SCF Done:  E(RwB97XD) =  -1255.23443320     A.U. after    9 cycles
 Optimization completed.
    -- Stationary point found.
 SCF Done:  E(RwB97XD) =  -1255.23447601     A.U. after   11 cycles
 SCF Done:  E(RwB97XD) =  -1255.23447632     A.U. after   10 cycles
 Optimization completed.
 SCF Done:  E(RwB97XD) =  -1255.23451224     A.U. after   11 cycles
 SCF Done:  E(RwB97XD) =  -1255.23451258     A.U. after   10 cycles
 SCF Done:  E(RwB97XD) =  -1255.23391212     A.U. after   10 cycles
 SCF Done:  E(RwB97XD) =  -1255.23391237     A.U. after   10 cycles
 SCF Done:  E(RwB97XD) =  -1255.23381425     A.U. after   10 cycles
 SCF Done:  E(RwB97XD) =  -1255.23381450     A.U. after   10 cycles
 SCF Done:  E(RwB97XD) =  -1255.23370982     A.U. after   10 cycles
 SCF Done:  E(RwB97XD) =  -1255.23371006     A.U. after   10 cycles
 SCF Done:  E(RwB97XD) =  -1255.23359883     A.U. after   10 cycles
 SCF Done:  E(RwB97XD) =  -1255.23359907     A.U. after   10 cycles
    -- Stationary point found.
 SCF Done:  E(RwB97XD) =  -1255.23348134     A.U. after   10 cycles
 SCF Done:  E(RwB97XD) =  -1255.23348157     A.U. after   10 cycles
 Optimization completed.
    -- Stationary point found.

                         Standard orientation:
 ---------------------------------------------------------------------
 Center     Atomic      Atomic             Coordinates (Angstroms)
 Number     Number       Type             X           Y           Z
 ---------------------------------------------------------------------
      1          6           0        0.722359    0.008547   -0.000227
      2          6           0        1.555242   -1.082039   -0.000842
      3          6           0        2.937283   -0.723928   -0.000168
      4          6           0        3.131974    0.619468    0.000948
      5         16           0        1.651252    1.483822    0.001001
      6          1           0        3.742766   -1.449325   -0.000667
      7          1           0        4.070126    1.153041    0.001508
      8          6           0       -0.729959    0.003270   -0.000211
      9          6           0       -1.582789    1.078806   -0.000736
     10         16           0       -1.655214   -1.475827    0.000923
     11          6           0       -2.960447    0.727943   -0.000090
     12          6           0       -3.141934   -0.619685    0.000910
     13          1           0       -3.768289    1.449477   -0.000497
     14          1           0       -4.075648   -1.160989    0.001444
     15          8           0        1.159641   -2.382404   -0.002177
     16          8           0       -1.108311    2.354775   -0.002023
     17          1           0        1.931493   -2.947713    0.001919
     18          1           0       -1.838072    2.974320    0.001600
 ---------------------------------------------------------------------

 The electronic state is 1-A.
 Alpha  occ. eigenvalues --  -89.04150 -89.04147 -19.28697 -19.28653 -10.35054
 Alpha  occ. eigenvalues --  -10.34971 -10.32095 -10.31947 -10.31483 -10.31376
 Alpha  occ. eigenvalues --  -10.29425 -10.29268  -8.08186  -8.08182  -6.03035
 Alpha  occ. eigenvalues --   -6.03034  -6.02636  -6.02632  -6.02265  -6.02254
 Alpha  occ. eigenvalues --   -1.17807  -1.17658  -0.99606  -0.97844  -0.87159
 Alpha  occ. eigenvalues --   -0.83453  -0.82589  -0.80589  -0.70358  -0.69528
 Alpha  occ. eigenvalues --   -0.68391  -0.64744  -0.62580  -0.57816  -0.56860
 Alpha  occ. eigenvalues --   -0.55682  -0.52624  -0.51922  -0.51140  -0.50472
 Alpha  occ. eigenvalues --   -0.46375  -0.46181  -0.45284  -0.44031  -0.43836
 Alpha  occ. eigenvalues --   -0.42476  -0.41438  -0.35997  -0.31536  -0.31322
 Alpha  occ. eigenvalues --   -0.26077
 Alpha virt. eigenvalues --    0.02727   0.05076   0.05834   0.06692   0.06755
 Alpha virt. eigenvalues --    0.07301   0.08518   0.09742   0.09844   0.10035
 Alpha virt. eigenvalues --    0.10632   0.11863   0.11942   0.11998   0.12109

 Mulliken charges:
               1
     1  C    0.417228
     2  C    0.090839
     3  C   -0.388914
     4  C   -0.251328
     5  S   -0.315221
     6  H    0.136710
     7  H    0.184686
     8  C    0.455202
     9  C    0.210193
    10  S   -0.335712
    11  C   -0.371359
    12  C   -0.239250
    13  H    0.139543
    14  H    0.185991
    15  O   -0.230361
    16  O   -0.238121
    17  H    0.272727
    18  H    0.277149
 Sum of Mulliken charges =  -0.00000

 Dipole moment (field-independent basis, Debye):
    X=             -0.0015    Y=              0.1324    Z=              0.0127  Tot=              0.1330
 Quadrupole moment (field-independent basis, Debye-Ang):
   XX=            -62.3842   YY=            -72.7452   ZZ=            -89.0695
   XY=            -10.1276   XZ=              0.0019   YZ=             -0.0022

 Normal termination of Gaussian 16 at Fri Feb  7 01:41:32 2020.
