 Gaussian 16, Revision A.03,
 Gaussian 16:  ES64L-G16RevA.03 25-Dec-2016

 --------------------------------------------------------
 # opt=modredundant wb97xd/6-311+g(d,p) geom=connectivity
 --------------------------------------------------------

 -------------------
 Title Card Required
 -------------------
 Symbolic Z-matrix:
 Charge =  0 Multiplicity = 1

 SCF Done:  E(RwB97XD) =  -1333.82612264     A.U. after   15 cycles
 SCF Done:  E(RwB97XD) =  -1333.82694487     A.U. after   11 cycles
 SCF Done:  E(RwB97XD) =  -1333.82703835     A.U. after   13 cycles
 SCF Done:  E(RwB97XD) =  -1333.82704497     A.U. after   10 cycles
 SCF Done:  E(RwB97XD) =  -1333.82704538     A.U. after    9 cycles
 Optimization completed.
    -- Stationary point found.
 SCF Done:  E(RwB97XD) =  -1333.82705058     A.U. after   10 cycles
 SCF Done:  E(RwB97XD) =  -1333.82705080     A.U. after   10 cycles
 SCF Done:  E(RwB97XD) =  -1333.82705090     A.U. after    9 cycles
 Optimization completed.
 SCF Done:  E(RwB97XD) =  -1333.82704833     A.U. after   10 cycles
 SCF Done:  E(RwB97XD) =  -1333.82704868     A.U. after    9 cycles
 SCF Done:  E(RwB97XD) =  -1333.82556247     A.U. after   10 cycles
 SCF Done:  E(RwB97XD) =  -1333.82556285     A.U. after    9 cycles
 SCF Done:  E(RwB97XD) =  -1333.82540939     A.U. after   10 cycles
 SCF Done:  E(RwB97XD) =  -1333.82540978     A.U. after    9 cycles
 SCF Done:  E(RwB97XD) =  -1333.82524888     A.U. after   10 cycles
 SCF Done:  E(RwB97XD) =  -1333.82524928     A.U. after    9 cycles
 SCF Done:  E(RwB97XD) =  -1333.82508093     A.U. after   10 cycles
 SCF Done:  E(RwB97XD) =  -1333.82508134     A.U. after    9 cycles
    -- Stationary point found.
 SCF Done:  E(RwB97XD) =  -1333.82490553     A.U. after   10 cycles
 SCF Done:  E(RwB97XD) =  -1333.82490595     A.U. after    9 cycles
 Optimization completed.
    -- Stationary point found.

                         Standard orientation:
 ---------------------------------------------------------------------
 Center     Atomic      Atomic             Coordinates (Angstroms)
 Number     Number       Type             X           Y           Z
 ---------------------------------------------------------------------
      1          6           0       -0.585443   -0.409197   -0.000007
      2          6           0       -1.886584    0.041270    0.000002
      3          6           0       -2.828507   -1.039173    0.000002
      4          6           0       -2.233133   -2.259980   -0.000006
      5         16           0       -0.524837   -2.146608   -0.000014
      6          1           0       -3.901632   -0.914924    0.000008
      7          1           0       -2.712430   -3.227043   -0.000008
      8          6           0        0.612247    0.411776   -0.000007
      9          6           0        1.924934   -0.003466   -0.000015
     10         16           0        0.547891    2.152162    0.000006
     11          6           0        2.868863    1.062131   -0.000011
     12          6           0        2.257518    2.278444    0.000001
     13          1           0        3.941856    0.934520   -0.000016
     14          1           0        2.726113    3.250719    0.000006
     15          8           0       -2.273189    1.336983    0.000007
     16          8           0        2.212837   -1.328097   -0.000032
     17          6           0        3.573539   -1.701080    0.000024
     18          1           0        4.086580   -1.331959    0.895131
     19          1           0        3.589657   -2.789669    0.000029
     20          1           0        4.086652   -1.331967   -0.895046
     21          6           0       -3.651868    1.630024    0.000033
     22          1           0       -4.143779    1.234829    0.895463
     23          1           0       -3.724652    2.716217    0.000042
     24          1           0       -4.143810    1.234841   -0.895385
 ---------------------------------------------------------------------

 The electronic state is 1-A.
 Alpha  occ. eigenvalues --  -89.03823 -89.03817 -19.28274 -19.28173 -10.34600
 Alpha  occ. eigenvalues --  -10.34411 -10.34067 -10.33943 -10.31717 -10.31536
 Alpha  occ. eigenvalues --  -10.30962 -10.30772 -10.28933 -10.28643  -8.07859
 Alpha  occ. eigenvalues --   -8.07853  -6.02701  -6.02701  -6.02307  -6.02301
 Alpha  occ. eigenvalues --   -6.01948  -6.01934  -1.18008  -1.17858  -0.99337
 Alpha  occ. eigenvalues --   -0.97480  -0.87106  -0.85414  -0.83866  -0.81451
 Alpha  occ. eigenvalues --   -0.79115  -0.77033  -0.68774  -0.67530  -0.64345
 Alpha  occ. eigenvalues --   -0.64179  -0.62833  -0.57049  -0.56738  -0.56419
 Alpha  occ. eigenvalues --   -0.55998  -0.54377  -0.52747  -0.52401  -0.49738
 Alpha  occ. eigenvalues --   -0.49430  -0.48635  -0.46650  -0.45583  -0.44433
 Alpha  occ. eigenvalues --   -0.42951  -0.41697  -0.40967  -0.40588  -0.40492
 Alpha  occ. eigenvalues --   -0.35326  -0.31112  -0.30834  -0.25293
 Alpha virt. eigenvalues --    0.02843   0.05900   0.06306   0.06849   0.07661
 Alpha virt. eigenvalues --    0.07849   0.08026   0.08541   0.09399   0.09430
 Alpha virt. eigenvalues --    0.09864   0.10596   0.11426   0.11581   0.11847

 Mulliken charges:
               1
     1  C    0.698031
     2  C   -0.134883
     3  C   -0.495835
     4  C   -0.261922
     5  S   -0.286857
     6  H    0.150586
     7  H    0.181037
     8  C    0.805187
     9  C   -0.087281
    10  S   -0.306921
    11  C   -0.484640
    12  C   -0.270484
    13  H    0.152998
    14  H    0.183331
    15  O   -0.111988
    16  O   -0.106104
    17  C   -0.298922
    18  H    0.154720
    19  H    0.177691
    20  H    0.154716
    21  C   -0.303575
    22  H    0.155641
    23  H    0.179834
    24  H    0.155640
 Sum of Mulliken charges =  -0.00000

 Dipole moment (field-independent basis, Debye):
    X=              0.0045    Y=             -0.0701    Z=              0.0001  Tot=              0.0703
 Quadrupole moment (field-independent basis, Debye-Ang):
   XX=            -69.5333   YY=            -89.2064   ZZ=           -101.3211
   XY=             -2.5757   XZ=              0.0000   YZ=             -0.0000

 Normal termination of Gaussian 16 at Fri Feb  7 03:04:22 2020.
